# vtk DataFile Version 1.0
Tissue data
ASCII

DATASET POLYDATA
POINTS 1593 float
0.0658585 -0.682144 0.772697
0.0507737 0.5556 0.87374
0.210668 -0.830478 0.567883
0.190978 -0.811859 0.6038519999999999
0.170649 -0.791848 0.6379239999999999
0.149555 -0.771037 0.669476
0.127124 -0.749791 0.698302
0.105465 -0.728409 0.724613
0.0851141 -0.705194 0.749324
0.100651 -0.675963 0.778518
0.140084 -0.668508 0.783569
0.179353 -0.660882 0.787385
0.219884 -0.652033 0.790369
0.261634 -0.641691 0.792475
0.304482 -0.629643 0.793545
0.348256 -0.615748 0.793393
0.392729 -0.599916 0.791822
0.437635 -0.582112 0.788639
0.482677 -0.562351 0.783679
0.527534 -0.540696 0.7768079999999999
0.57188 -0.517257 0.767932
0.615388 -0.492185 0.757004
0.655247 -0.46728 0.74486
0.693063 -0.441803 0.731246
0.729465 -0.415439 0.715984
0.764985 -0.387804 0.6987949999999999
0.800774 -0.357856 0.678849
0.834342 -0.327558 0.657377
0.865608 -0.29716 0.63453
0.89447 -0.266866 0.610568
-0.227291 0.829789 0.559613
-0.202863 0.811323 0.598046
-0.177832 0.790578 0.635136
-0.151772 0.768168 0.6701199999999999
-0.123728 0.744953 0.701965
-0.0962005 0.721058 0.730949
-0.0714486 0.695351 0.757435
-0.0500939 0.67163 0.780653
-0.0289447 0.648118 0.801832
-0.00899136 0.624904 0.821399
0.0104675 0.602217 0.839479
0.0300684 0.579228 0.856864
0.0658337 -0.653975 0.798512
0.065619 -0.62504 0.823057
0.0654334 -0.595037 0.84656
0.0653772 -0.562952 0.8697509999999999
0.0653771 -0.528713 0.892491
0.0653695 -0.492278 0.9145989999999999
0.0653165 -0.453648 0.93586
0.0651969 -0.412865 0.956033
0.0649909 -0.370023 0.974856
0.0646752 -0.325268 0.992061
0.06425 -0.278779 1.00739
0.0637321 -0.230766 1.0206
0.0631389 -0.18149 1.03149
0.0624346 -0.133745 1.03951
0.0616131 -0.0861817 1.04498
0.0606988 -0.038194 1.04798
0.0597597 0.0108267 1.04844
0.0588169 0.0621309 1.04621
0.05799 0.11275 1.04129
0.057304 0.162408 1.0338
0.0569265 0.210927 1.02389
0.0577441 0.25817 1.01184
0.058646 0.30141 0.998698
0.0580082 0.342917 0.983936
0.0570136 0.382668 0.967891
0.0558984 0.420558 0.950786
0.0547674 0.456505 0.932848
0.053651 0.490446 0.9142899999999999
0.0523726 0.523398 0.894654
0.0817576 0.546762 0.879284
0.117828 0.539008 0.884775
0.158473 0.531621 0.88812
0.200565 0.523294 0.890647
0.244018 0.513679 0.891998
0.28868 0.50259 0.8919199999999999
0.334314 0.489875 0.890135
0.380632 0.475437 0.8863989999999999
0.427303 0.459241 0.880508
0.473977 0.441311 0.872309
0.520295 0.421727 0.861709
0.565909 0.400617 0.848676
0.610486 0.378149 0.833234
0.651176 0.355951 0.816588
0.689657 0.333368 0.798386
0.726596 0.310134 0.778424
0.762562 0.285933 0.756373
0.798729 0.259873 0.731253
0.832614 0.233682 0.704635
0.864131 0.20756 0.67675
0.893234 0.181692 0.647828
0.919892 0.156169 0.618132
0.0352351 -0.671854 0.782261
0.00544529 -0.661776 0.7909269999999999
-0.0241476 -0.652025 0.799023
-0.0546714 -0.642148 0.807107
-0.0865381 -0.631846 0.815116
-0.125418 -0.62245 0.822743
-0.170276 -0.612466 0.828225
-0.216267 -0.601031 0.832882
-0.263157 -0.58779 0.836347
-0.310647 -0.572599 0.83838
-0.358467 -0.55541 0.8386979999999999
-0.406303 -0.536227 0.837076
-0.453807 -0.515113 0.833347
-0.497839 -0.493624 0.827813
-0.54009 -0.47114 0.820466
-0.581211 -0.447402 0.811222
-0.621792 -0.422086 0.799878
-0.663168 -0.394231 0.785799
-0.702502 -0.365679 0.7698
-0.739638 -0.33669 0.75206
-0.774464 -0.307515 0.73278
-0.80692 -0.278387 0.712167
-0.83698 -0.249514 0.6904359999999999
-0.864663 -0.221084 0.667793
-0.89002 -0.193264 0.644431
-0.913082 -0.166113 0.62062
-0.0880437 -0.83758 0.5747599999999999
-0.072315 -0.815044 0.612014
-0.0532997 -0.795557 0.641625
-0.0324931 -0.776599 0.667613
-0.012148 -0.757908 0.691153
0.00779009 -0.739413 0.712873
0.0269372 -0.721013 0.733236
0.0463615 -0.702046 0.753094
0.279616 0.823577 0.553764
0.260072 0.80452 0.593687
0.240052 0.783521 0.632089
0.219168 0.760881 0.668639
0.197297 0.737047 0.702771
0.174429 0.712376 0.734204
0.151242 0.687178 0.762844
0.127422 0.661506 0.788975
0.105013 0.63559 0.812926
0.0852549 0.608669 0.834454
0.0677414 0.58192 0.854946
0.0209124 0.543934 0.881113
-0.00796573 0.532367 0.888296
-0.0366162 0.520957 0.895397
-0.0663398 0.509483 0.902496
-0.101495 0.498293 0.910254
-0.145154 0.484993 0.917491
-0.19044 0.471575 0.923171
-0.23689 0.456922 0.927258
-0.28426 0.440735 0.929527
-0.332242 0.422856 0.929679
-0.380474 0.403241 0.927453
-0.428561 0.38193 0.9226489999999999
-0.47609 0.359037 0.915149
-0.519919 0.336237 0.905593
-0.561728 0.312846 0.893919
-0.602171 0.288601 0.880045
-0.641837 0.263195 0.863747
-0.68203 0.235723 0.844245
-0.720008 0.208028 0.822742
-0.755654 0.180349 0.799491
-0.788898 0.152901 0.774753
-0.819714 0.125875 0.748787
-0.848108 0.0994367 0.721844
-0.874113 0.0737249 0.694163
-0.897795 0.0488534 0.665969
-0.919244 0.0249124 0.63747
-0.938543 0.0019511 0.608869
-0.925027 0.108601 0.618153
-0.92292 0.066578 0.628435
-0.894657 0.268189 0.603666
-0.898764 0.223388 0.619618
-0.901071 0.178918 0.6337389999999999
-0.901651 0.134975 0.64607
-0.90052 0.0916735 0.656768
-0.858114 0.34376 0.610088
-0.86539 0.298183 0.628835
-0.870709 0.252526 0.645671
-0.874181 0.207099 0.6605219999999999
-0.875861 0.162112 0.6734789999999999
-0.875817 0.117683 0.684642
-0.814395 0.420134 0.611291
-0.824958 0.374601 0.633061
-0.833492 0.328483 0.652945
-0.84009 0.282157 0.6707069999999999
-0.844774 0.235907 0.686412
-0.847624 0.189973 0.700103
-0.848712 0.144489 0.711872
-0.763619 0.495574 0.606752
-0.777454 0.451013 0.631548
-0.789237 0.405315 0.6546609999999999
-0.799063 0.358889 0.675639
-0.806912 0.312061 0.6944859999999999
-0.812843 0.265148 0.711159
-0.816903 0.218399 0.72571
-0.819168 0.171966 0.738219
-0.706804 0.567692 0.596392
-0.723378 0.525612 0.623748
-0.738258 0.481277 0.6500779999999999
-0.751215 0.435672 0.674427
-0.762211 0.389132 0.696688
-0.771282 0.342011 0.716713
-0.778435 0.294618 0.734487
-0.78371 0.247212 0.750037
-0.78717 0.199956 0.763434
-0.64899 0.630848 0.581632
-0.666291 0.59344 0.6105119999999999
-0.682025 0.5542 0.638448
-0.697451 0.51059 0.666246
-0.711235 0.465316 0.692119
-0.723238 0.418925 0.715755
-0.733395 0.371744 0.737093
-0.741689 0.324088 0.756096
-0.748123 0.276216 0.772794
-0.752746 0.228284 0.787245
-0.606295 0.654693 0.593079
-0.624263 0.61794 0.623088
-0.640857 0.579267 0.651895
-0.655969 0.538083 0.6800579999999999
-0.670002 0.493694 0.707457
-0.682628 0.447832 0.7325659999999999
-0.693628 0.400916 0.755303
-0.70288 0.353282 0.775655
-0.71033 0.30519 0.793652
-0.715996 0.256763 0.809352
-0.541035 0.711886 0.570806
-0.562169 0.677314 0.602552
-0.580925 0.641209 0.633662
-0.598281 0.603121 0.663523
-0.613813 0.56272 0.6927949999999999
-0.628025 0.519868 0.720931
-0.641007 0.475126 0.74714
-0.65256 0.428974 0.7711399999999999
-0.662505 0.381806 0.792827
-0.670703 0.333881 0.812223
-0.677125 0.285227 0.829403
-0.493041 0.732833 0.578182
-0.514045 0.699224 0.611603
-0.533834 0.663445 0.643909
-0.552131 0.625539 0.675175
-0.568966 0.585597 0.705134
-0.584324 0.543722 0.733591
-0.598202 0.50011 0.760288
-0.610549 0.455049 0.78499
-0.62123 0.408856 0.807575
-0.630015 0.36176 0.828103
-0.636665 0.313519 0.846882
-0.444253 0.751615 0.584158
-0.465114 0.719093 0.618762
-0.485099 0.684128 0.652363
-0.504004 0.646897 0.684744
-0.521695 0.607545 0.715706
-0.53811 0.566276 0.744976
-0.55316 0.523327 0.77235
-0.566769 0.478977 0.797643
-0.578814 0.433559 0.820728
-0.589008 0.387463 0.841618
-0.596537 0.338939 0.861748
-0.372828 0.797208 0.553115
-0.395086 0.76818 0.588632
-0.415936 0.736739 0.624207
-0.435934 0.7028 0.658782
-0.455029 0.666535 0.692144
-0.473122 0.628081 0.724048
-0.49013 0.587618 0.754266
-0.505989 0.54537 0.782565
-0.520625 0.50159 0.808757
-0.533988 0.45656 0.832676
-0.546035 0.410579 0.854198
-0.555354 0.36285 0.874556
-0.32449 0.810068 0.556186
-0.346121 0.782218 0.592639
-0.366957 0.75196 0.6283799999999999
-0.386793 0.719219 0.66352
-0.405807 0.684111 0.697576
-0.423968 0.646765 0.73025
-0.44122 0.607341 0.761296
-0.457503 0.566028 0.790492
-0.472764 0.523045 0.817639
-0.486952 0.47861 0.8425819999999999
-0.50007 0.432887 0.865211
-0.512185 0.385712 0.885566
-0.276003 0.821002 0.558123
-0.29773 0.794069 0.595198
-0.318348 0.764856 0.631428
-0.337995 0.733333 0.666835
-0.356756 0.699472 0.701297
-0.374745 0.663364 0.734498
-0.391965 0.625139 0.766178
-0.408383 0.58496 0.796111
-0.423949 0.54301 0.824099
-0.438615 0.499477 0.849984
-0.452332 0.454489 0.873673
-0.465029 0.407944 0.895213
-0.24996 0.803784 0.596827
-0.270531 0.77558 0.633296
-0.289842 0.745197 0.668911
-0.308221 0.712595 0.703541
-0.325855 0.677786 0.737018
-0.342824 0.640859 0.7691
-0.35914 0.601944 0.799563
-0.374768 0.561199 0.8282079999999999
-0.389653 0.518787 0.854874
-0.403732 0.474831 0.879458
-0.416856 0.429317 0.901972
-0.223675 0.784161 0.634363
-0.242669 0.754904 0.669921
-0.260513 0.723536 0.704526
-0.27764 0.69004 0.738042
-0.294175 0.654461 0.770286
-0.310194 0.616891 0.80105
-0.325681 0.577459 0.8301419999999999
-0.34058 0.536311 0.857395
-0.354824 0.493565 0.882695
-0.368254 0.44925 0.906015
-0.196642 0.762525 0.670219
-0.213871 0.732406 0.704488
-0.230387 0.70022 0.7378
-0.246334 0.666 0.769969
-0.261895 0.629814 0.800804
-0.277077 0.591757 0.830125
-0.291813 0.55196 0.85776
-0.306053 0.510532 0.883585
-0.319645 0.467515 0.9075489999999999
-0.168338 0.739365 0.703696
-0.184298 0.708505 0.736515
-0.199554 0.675637 0.76837
-0.214525 0.640822 0.799064
-0.22929 0.604157 0.828406
-0.243705 0.56576 0.856218
-0.257787 0.525714 0.8823759999999999
-0.271411 0.484053 0.906814
-0.139405 0.715105 0.73435
-0.153966 0.683623 0.765658
-0.168305 0.650165 0.796014
-0.182608 0.614801 0.825265
-0.196557 0.577821 0.853056
-0.210331 0.539202 0.879344
-0.223864 0.498928 0.904083
-0.109469 0.690061 0.7623679999999999
-0.123288 0.658333 0.791791
-0.137408 0.624002 0.820843
-0.150573 0.58819 0.848615
-0.1639 0.551149 0.874782
-0.177222 0.512332 0.899625
-0.0828115 0.665093 0.785977
-0.0942915 0.632821 0.815026
-0.106436 0.597402 0.843243
[...]
CELL_DATA 3055
SCALARS gaussian_curvature float 1
LOOKUP_TABLE default
0.43098136799883313
0.236628026670356
0.40465816264523924
0.17395011352281256
0.3512665827171839
0.7215554943200422
0.2702378259036987
0.809805670235834
0.5528413431479677
0.6842827075883949
0.9188489548650325
0.9078993734869789
0.23847924879208626
0.27027725748902914
0.055181847815147275
0.3171805819674651
0.26087529653650976
0.16226016051751718
0.33780878309457474
0.2701129831115132
0.22602922641962125
0.40262658667026197
0.31339974228284684
0.4842930331134576
-0.0389502345227499
0.02077221509522413
0.01103063989353725
0.030050562873324742
0.21638949832565232
-0.17608290408306795
0.1254945828235388
0.22812566058590372
0.09744146450990768
0.07300239605752953
-0.03541843217518892
0.5660168447710053
-0.09727695934252922
0.21993268256214737
-0.13059851421608384
-0.0978010177292779
-0.2952185860377602
-0.20251995537846035
-9.577882337986994
0.900557751863351
0.9321393841985988
0.8815691233102366
0.8204521249861849
-8.365075431649538
-20.19953079908735
0.9048690318357293
0.9218996002720741
0.9428000580016933
0.6736724500133221
0.8864411194628812
0.7211220293109754
0.8485852567178391
0.744383164889985
0.909204333701372
0.9086436175211059
0.9646034312844646
1.0745942007627685
0.8655793447326261
0.9707249720284561
0.7495498117096089
0.9588975308332931
0.9143658174788747
0.9201349437025784
0.7062525309798364
0.7233921258148546
0.7602856669291236
0.7001000823202949
0.9049327923986679
0.6353994886661548
0.8719818162214605
0.9100324337481944
0.5813481985937611
0.5756732060581395
1.0623822046385987
0.5358845738182193
0.8911056509944382
0.845352388046844
0.24980840988423847
0.23057144100564014
0.8358225771366636
0.3343361364048629
0.7707686684743004
0.7642187865861825
0.7101144593018727
0.9076584421484946
0.6307836970618075
0.86189377924126
0.7710614322703229
0.877730905331158
0.8410028856445306
0.8877443068441473
0.7126392901501992
0.7885820908559431
0.9262636314115018
0.8569110098283492
0.9326138894020787
0.8999892875055534
0.950421746225619
0.9277395477481624
0.844109721471969
0.7697794551680267
0.9773148670131782
0.9229617803161456
0.9842359485351198
0.9625074637346126
0.9900012148300188
0.9694583520330364
0.9084082508388631
0.8726344696718906
1.0142807254740998
0.9800188813960568
1.0222811786272854
1.0097478193497498
1.0186078815000494
1.0012494523779105
0.9724624067807018
0.9403974596419752
1.041375374830095
1.0245860072673438
1.0499359097068648
1.0456799014216496
1.0382441837286192
1.0234771435517596
1.0222286263638611
0.999833963830912
1.0579674296205215
1.0572844649100441
1.0653635953374605
1.0689366389121984
1.0483897038529935
1.0372269928378608
1.0596480387521967
1.045686094360319
1.0654212294489225
1.0774164366830306
1.0728013440599806
1.0812235077193508
1.052767599921833
1.0431322400428429
1.0840028576161853
1.0778866336875055
1.0669776133332272
1.0875480870456082
1.072648049686357
1.084796359739368
1.0519353069623758
1.04510540816204
1.0972424708259956
1.0975043124328931
1.0632199699691
1.0889373085936174
1.068239255590497
1.0818082841620038
1.0487332085238705
1.0431189818702762
1.1006056857482
1.106159120674338
1.0575880766365409
1.0845463050761301
1.0616017027424351
1.0749909026105178
1.044012373152923
1.0401767906616495
1.0974516792925688
1.106382035533025
1.0523246221540081
1.0771010662542106
1.0555266848487634
1.0669139290808833
1.0400078229789047
1.0357092000837138
1.0899122544599202
1.1007074650326663
1.0471879982213084
1.068573576200194
1.0491638495718525
1.0591621833186184
1.0376417483916829
1.0336636358440343
1.0804828550215293
1.0916343961079282
1.0426939481744792
1.060119570851232
1.0442468924128017
1.0516741813427886
1.0370773479628534
1.0340009995306012
1.0699989839392003
1.0809508752279218
1.0408356908880683
1.0513873636070399
1.04125532039668
1.0443797041856644
1.037179355438807
1.0349739567519145
1.0589289225586924
1.0690951533824093
1.0397773770003416
1.0435728366721104
1.0405634323472963
1.041234508230081
1.2917708092130917
1.289592417160169
1.0491520499036326
1.057500476368839
1.291668368523942
1.0407217709224992
1.2913804599869387
1.0397627865027115
0.7439145862598322
0.7448030822959368
1.0423041036890042
1.0483960542281077
0.7680948075653963
1.0376764601158583
0.7638001263572126
1.2849994523919022
1.0383138433080328
1.041982502461391
1.281510244957074
0.6684060683769698
1.0343660396157541
1.0384926302427564
13.120677634791239
13.733233199511147
1.033817427755559
27.52296066127463
-1.3947332180333945
-5.040437122862803
-11.06049396292719
0.898963421111704
-2.7862682878170797
0.864193802624386
0.8246659985250115
-8.747396205339308
4.3143353368516575
0.897868571929065
0.917269690371848
-3.4970934271184495
0.8504160976874134
0.7804173785403445
0.7997344963160953
0.769263581268401
0.884408122135561
0.8970909778898946
0.9772192523016292
0.31064273298492623
0.8022234658458247
0.9963162369705216
0.7455591381760079
0.9701228243483991
0.8561094592350789
0.887612514153497
0.7390117136678683
0.7087609317270323
0.7211821825330197
0.7087043763026816
0.8449464080578619
0.6079049156551326
0.7782300556101459
0.8564930046423881
0.47193015681622
0.47604408155928424
0.9911561979539674
0.3133080927648899
0.6683269581214449
0.2275203453350969
0.840331018121617
0.7511691013026378
0.07495039436847503
0.1327729977722561
0.18790634570526282
-0.06070106836773333
-0.1324591619357218
0.05974003677763005
0.6130892845209319
0.9426847171047639
0.15137180111257958
0.20123551641899493
-0.296360078508549
0.21324763939072428
-0.1890195978123176
0.1283889213736038
0.09269461416784974
0.681778469556346
0.21786046920387692
0.2764257360710956
-0.2346946130736624
0.10987168800303695
0.017938516220373516
0.04509629811115144
-0.48555943539057905
-0.05082972745283554
0.15146619436438624
0.1745962575481057
-0.07390405131372796
0.08042640636051507
-0.08490232018169754
0.042270355601767555
-0.03107198672392946
-0.19009424150674467
0.20101961113335798
0.20728400924534363
-0.11775534125582393
0.19575626997996876
-0.2053810022400506
-0.12969591657612567
0.18555464210576286
0.15266193250040455
-0.19920425222052301
0.08813869601369309
0.15509876536696726
-0.05609262026545382
0.20449690175550442
0.2064815203982199
0.1289606505908234
0.059631251190571756
0.6066219081260543
-0.1520295604973457
0.13437157441717856
0.12535646604741402
0.061015349622641074
0.913832352139806
-0.026323421471397303
0.5753151675502519
-0.24439545342477648
0.07084200068234847
0.05226692754478079
-0.007713996624325314
0.9132231270043036
0.779489977884982
-0.10688988136937436
0.5518622944090119
-0.3322191597834412
0.011295561887820216
-0.02669894494174857
-0.0856141679809726
0.920448450485674
0.7773361162130623
-0.1829707613730753
0.5330118991959923
-0.41620542604058597
-0.043737487142779724
-0.10225236749468188
-0.17130982947742196
0.9332971531372912
0.7801669719057811
-0.25741372818303093
0.5185233684875263
-0.49919722706011677
-0.09572806928736577
-0.18174731689876852
-0.2598206208779301
0.9506009656574244
0.7886253639684171
-0.3309033194044125
0.5075850430674033
-0.5779230252537267
-0.14290382055466203
-0.25706748565391985
-0.3496949820253617
0.9717647648969856
0.8005292497121146
-0.3986094712329604
0.501438115989199
-0.6474869008120909
-0.1824585182889964
-0.32257108710476934
-0.42804880737504314
0.9965930726478032
0.8164308579335244
-0.4568942520973787
0.5022815333801897
-0.7043542982408397
-0.21020689528636605
-0.38043534736618306
-0.49498961195270436
1.0249118175747072
0.8353267225641252
-0.5024932184639357
0.5062236782632623
-0.7385236355659112
-0.22395414179318684
-0.4297009603943469
-0.5551031354400553
1.048921960660293
0.8551216713051822
-0.5287851584440654
0.5169375056543271
-0.7329595161410236
-0.20180634581535556
-0.46942929749978135
-0.6063755165520383
1.070590089010655
0.8723967239601719
-0.5297140435346237
0.5176794788979087
-0.715956770614356
-0.19971641850749167
-0.5094957501201907
-0.6533853617823066
1.056670064970844
0.8908368236139077
-0.5434142390529085
0.4892696960653297
-0.7206220715508282
-0.2041784885394543
-0.5556941698350846
-0.7080184079820988
1.0220115440083555
0.8720160155084694
-0.5659218723460455
0.4830674040850664
-0.7607498256675588
-0.22820413224782088
-0.5887696417687673
-0.755749771755726
1.01802987287853
0.8635258281970352
-0.6077519984162679
0.4957600604903158
-0.8284226704037359
-0.2574563049168901
-0.612165766374607
-0.7880113630486197
1.0639335059833563
0.8749317820386835
-0.6523406155847118
0.531158782791062
-0.9116075836629429
-0.299074550774015
-0.6165347335032787
-0.797030556280642
1.1326509021763687
0.9122092599614571
-0.7056468370286066
0.5072047675828582
-0.9743370003874838
-0.37401842866494694
-0.6212949468549015
-0.7914498114078048
1.146999381072417
0.9422121821008502
-0.7238751812817108
0.46162773146143266
-0.991828485176273
-0.40664414415566635
-0.6126357693393074
-0.7787456982713752
1.1098023777526071
0.9139508311157863
-0.7136154537003864
0.39435119121990064
-0.9734253957749269
-0.45064309187524637
-0.580054954879551
-0.7470285744130342
1.0424839828244081
0.8896632937400156
-0.6772065267552887
0.4194360165816894
-0.9368339778446905
-0.36297373840739283
-0.5238881207185386
-0.6865464909173415
1.0430319535864063
0.821085636733978
-0.6565735272819445
-0.039431987390185025
-0.5726740665235343
-0.5293927660690724
-0.4835913264805389
-0.6105333710065348
0.6658042530083861
0.9658584389958953
-0.30614671013707573
-0.28674919872365423
-0.19360424455184977
-0.21748803359289015
-0.45361575206910576
-0.5471609076541586
0.15101446898393145
0.6136071420370844
-0.2637364872360392
-0.33438221403894863
-0.1248930865554941
-0.17165502431736315
-0.39992718021191487
-0.4772639794597554
0.059561322756705615
0.6142191709103497
-0.1937059903834371
-0.3088180135643252
-0.05482304257568414
-0.1231731279947032
-0.33203602366555085
-0.39941381281348354
0.046950110356799024
0.5780566363994153
-0.12455828122465354
-0.27433001075319535
0.014946125354911036
-0.06647551875461172
-0.26241630032208507
-0.3310110949552295
0.050150464999855926
0.5570754716794724
-0.04999221455652417
-0.2298926503429806
0.10021081238416882
0.0017320207072351324
-0.1931340348960991
-0.26605371408209544
0.06477250401034909
0.5526701113517692
0.029941335265800166
-0.19922165248712956
-0.12978189550147512
-0.2026542387226814
0.06239016704602804
0.5580089945937224
-0.15489317073418823
0.4997177559509443
0.9582889957874587
0.7034935775476314
0.8463576146573114
0.9473569938166303
0.7020151293047947
0.693581103741933
0.7532945537180715
0.7513618936935342
0.6682113065599926
0.7522910727215038
0.7512715445563736
0.902273522559399
0.8653529443738899
0.7466545066715582
0.8698176917976799
0.8342698412288896
0.9011736604665341
0.8458925787657491
0.6990267363966959
0.7695625051264577
0.9438848212755886
0.8744207069283488
0.9602783783904025
0.926362114611953
0.9753473679440758
0.9371009545588114
0.867280502058983
0.7795018660846615
1.0214623913742522
0.9649593516909631
1.0360370266887164
1.013450250783877
1.0399961299789267
1.0102746636635642
0.9565664846729252
0.9108290427245493
1.0777428882345983
1.043072460077494
1.091234286544515
1.0791506342922503
1.0855933176368135
1.062421194695606
1.0398925484555672
1.0018774721439119
1.1160850954746173
1.1010571620896807
1.127936956073737
1.124992674941065
1.1150650172510215
1.0980646377231342
1.1023351880855057
1.0772487486661484
1.137509855698415
1.139910558832546
1.1463274690037488
1.1516724532705518
1.1288114365982338
1.11821845874996
1.1451659903607871
1.1315261324651311
1.1446310258221672
1.1597638083785817
1.1502868707360354
1.160074669025647
1.1309236568715548
1.1239216809529553
1.1679633508858944
1.1651274273061059
1.1397945518596666
1.1627109524398205
1.1419895770822959
1.1551181793728387
1.1239719034586664
1.1207568533844228
1.174138130017675
1.1797013891108143
1.126998091971925
1.1541651569971272
1.127527915266375
1.141566378001035
1.1106190300649839
1.1097878667743548
1.166438776913769
1.178818976867335
1.1119156976103777
1.1392343021435378
1.1111437772189614
1.1244239190174616
1.0966472491168637
1.09588040486592
1.1523843369832558
1.1669900327573945
1.0955956144920433
1.1206874994661613
1.0927551354117035
1.104566878587321
1.0836792443782925
1.0839589586116962
1.1335655368952033
1.1504519912862214
1.078939644843408
1.099800674347315
1.0754847557776646
1.084534042105954
1.0696129107720882
1.0715120312266329
1.1113306770752769
1.128974918744325
1.0644151580395425
1.0795603964057054
1.0610240411173553
1.0671199931552287
1.0580878765297514
1.0598307401965537
1.0894640959197155
1.105967744347926
1.054313956539397
1.0632615649789758
1.0529206899461134
1.0557723463478186
1.050302607669404
1.0506854107375712
1.0704252387499185
1.0841873664401813
1.0496772817711277
1.0534900219523116
1.0488524599877622
1.049813543767241
1.0473573210419906
1.0465893803469835
1.0572217465537366
1.0666677447201862
1.046597134524212
1.0472588971916257
1.0481123971351474
1.0478130760230826
1.0440098328400549
1.0439451975744682
1.0484756564118662
1.0547620275889062
15.806271348779767
1.0462139747753636
16.059272318648947
1.2995142657566094
30.275879669413353
15.515133416084577
1.044019832116852
1.0468356925848115
1.2930338032954696
0.67265855373569
1.0379106721267597
1.042196991929388
13.424468797355802
14.041399217365518
1.034465842576696
28.113017798226593
0.04096780768527579
-0.012510174126002803
-0.0018878810125578247
0.06667622828708164
0.14090098226337117
-0.04767752858100476
0.048411940329758894
0.02387527428966777
0.10934245008698645
-0.05167287463975738
0.1271596642217811
0.10256826348127024
0.09893575445022143
-0.06444675711903841
-0.01072780473204546
-0.259577492098624
-0.005993878274814027
-0.0850497044941203
-0.3396532724490461
-0.087116341350999
-0.17908770603384538
0.07186621401844046
0.062298918824236826
0.5621025262431012
-0.014458589617520959
0.04897167895924352
0.6581891305679044
0.05153890912083231
0.5293437030165409
0.9188451014893126
0.8391170732659126
0.7288148643198199
0.14919151819937138
-0.15322414957660824
0.8262428067436867
1.0558231480469393
0.7583457089242653
0.7170780622868224
0.6990654227897248
0.7680999850983745
0.898123061798137
0.5987422413226147
0.7888223969504469
0.7079569042378184
0.7799916089111503
0.8658375385168307
0.8682614817743157
0.8850728490713465
0.7576872382487618
0.8165384050012081
0.8906361007461158
0.8646428819912841
0.9127794845886095
0.9428078836661199
0.9546709434290679
0.9678879752095474
0.91470033601907
0.8478779625423879
0.9587538425672645
0.9258173702017763
0.9940850922965485
1.0100675936383556
1.028866609482707
1.0316320790440343
0.9970866163761185
0.9595933189390983
1.0144243769624088
0.9881907174347454
1.0589766802657279
1.0564200644339754
1.0804859806610791
1.0751638952679994
1.0666213886253793
1.0395128419219282
1.0511881650229395
1.0307569629570517
1.1033154559635987
1.0866657105548143
1.113441370785461
1.1021137107697563
1.1147941787196083
1.0996094117767399
1.0755651052367208
1.0588313905388698
1.1304743685528216
1.10401816819819
1.1318947751706911
1.1167662348317642
1.145664475799452
1.1401102007881008
1.0883672325389266
1.075362169792399
1.145189401211066
1.1118506105095476
1.1390261856180897
1.1208159352554983
1.1626020669530004
1.164497548159256
1.0946050716219817
1.0838697602849348
1.1461480405946076
1.1100824396422224
1.1323406282367507
1.1144852776469567
1.1640322473449187
1.1743230581103352
1.0931093016449331
1.0865972583706434
1.1339129869068947
1.1004763485251798
1.1170550027319663
1.1014737149400455
1.1515088581720425
1.16782070625221
1.0844794492542051
1.0815152403786927
1.1159683709895503
1.0870863157120045
1.1000189362797708
1.0867181687941458
1.1322928913094295
1.1509753943169936
1.073476614146073
1.0718671141031395
1.098266847862106
1.074826822305225
1.084792759781349
1.0746535017100929
1.1121921978726321
1.1302688066101763
1.064083935408379
1.0623655803313685
1.0820682645381126
1.0658492151886727
1.0711734990696533
1.0650937077914695
1.0934330898868465
1.1100829351406092
1.0579696288189258
1.0560310284434997
1.06807544776307
1.0589889982343386
1.0603485897234375
1.0573419314728896
1.0760740383997052
1.0905369150550221
1.0532803974143126
1.0515055206016966
1.0568027838736611
1.0536485623666632
1.0523295986031396
1.0521820353466895
1.0620365402277683
1.0735809367141795
1.0517937998309173
1.0497785681171177
1.0489457314763775
1.0510712038897592
1.0474778787134817
1.0497509143833135
1.0511428527820612
1.0597604762629305
1.0502776430672593
1.0495337119884438
1.043639593095494
1.0486481264884184
1.0453111583547927
1.0480466560778856
1.0434811001168764
1.0495165070405479
1.2839494518694035
1.2842586789417987
1.042609542499061
17.088491437447708
1.2738870370499307
17.317033434275483
1.0402288849340668
1.0427720078111813
16.602100142269265
0.796956686280428
1.2666719701018716
0.6273614326685366
1.0341491504353295
1.0389835598183947
13.406618875715386
14.042849377793075
1.031069115079683
28.405207630250743
2.4665987483911165
-0.04791804258650434
-1.7333152712161302
2.8648768567328418
0.10474294088765862
0.13421078376289394
-0.11140634110466825
3.8417059736736254
-1.2769517069731073
-5.427168745770708
0.6765411544181875
0.9802437351870474
0.5721083400465202
-0.03742425108690224
0.5405291530974781
0.17661368683161785
0.5594206651821105
1.098352225839268
0.2551110907846757
0.7529272142974386
0.51276161808537
0.10720199629853008
0.4001001881385269
0.3584560326175472
0.5732901562207255
0.5883700163684239
-0.1392787031470048
0.2226683292576609
0.3891860167909067
0.25711416360933964
0.30481204392269134
0.21438434626210393
0.4724126368875391
0.5438553463705148
0.2790579736847715
0.13391914324744414
0.37496038800537534
0.15879333618635777
0.3197446375163653
0.19400528335793504
0.3703149180152747
0.383393194029223
0.1415810702859825
0.21911589043716045
-8.086688268201991
-1.7128507991639317
-2.179617761090625
-5.450072575290172
0.9345170504502849
0.9053370048664533
0.9160891615688509
-5.415335516537765
0.5903643217260768
0.9374544566592987
1.0600686898617837
0.8822610278441122
0.9165451741539956
0.8815677010411203
0.9050996906486063
0.8322369508735957
0.8900499866483436
0.9334738425410163
0.9359552361648854
0.8517628328150977
0.9188032645390244
0.8560775195953401
0.8995859617117807
0.7666672689517449
0.7464480602072512
0.9422203422031414
0.945445436699744
0.7917915345813984
0.9090652242059083
0.7915725376768079
0.8653377851848771
0.7248300745390557
0.7040204956896446
0.9368664962658142
0.9508043114358038
0.6907028122683377
0.8767254727706288
0.6836162374365691
0.7958736504307912
0.9208738141171625
0.9547820794832901
0.9239226055798249
0.9403361900539791
0.892871147227901
0.8117978414254471
0.8708393605251187
0.6775086417284426
0.6464236868231933
0.6673397788806862
0.88943071802571
0.9207036598402503
0.6249627393920301
0.6920155126205734
0.5400681343707654
0.8004516263959847
0.4518484185539263
0.4512775792823071
0.8164852498420637
0.879611255550196
0.36432561497148785
0.9213758983831322
0.34544348874416353
0.6421102801305886
0.07412811263565915
0.07675631119683288
0.7851952982970817
0.7887407635314245
-0.1969808645252602
-0.1854672795257314
-0.11504556510176987
-0.1553280559699759
-0.24146508941235803
-0.29326116528009283
-0.041583867133107785
-0.19762629039963908
-0.28338821789511437
-0.46999048602892696
0.003051790734892368
-0.13175440153118545
-0.2675730708618972
-0.1521882444104788
-0.2923960173089249
-0.15796493098975395
0.5058446141613409
0.39293433424997615
0.7773614077481495
0.7992573201028627
0.6243029429427613
0.13732526654952992
-0.1437674671685106
-0.49086173422967017
0.7325059533611604
0.6999406761914062
0.7045637613978717
0.6501025718734043
0.7916382700660048
0.9549520532344145
0.864198959021764
0.42681380151473375
0.8322190368622692
0.7492210488155695
0.8722470649109862
0.8437102663887539
0.8687789621296034
0.8002560033700502
0.6971786613074242
0.7623184671956168
0.9469132223081296
0.8943477757913958
0.9765032426582396
0.9524745946637381
0.9758705824059335
0.9377643502761241
0.8892242713330722
0.7865443744222851
1.0384104300266241
1.001346676395397
1.0647574826759894
1.051722377039264
1.0535960523371266