# vtk DataFile Version 1.0
Tissue data
ASCII

DATASET POLYDATA
POINTS 1593 float
0.065636 -0.667177 0.786367
0.0504911 0.538388 0.877422
0.209552 -0.824321 0.597481
0.189652 -0.803678 0.631167
0.169221 -0.781929 0.662832
0.148205 -0.759663 0.6919879999999999
0.1261 -0.73724 0.718498
0.104825 -0.714885 0.742596
0.084735 -0.690963 0.765089
0.0998322 -0.660179 0.791538
0.137983 -0.651941 0.795859
0.175907 -0.643543 0.799001
0.214974 -0.634003 0.801281
0.255138 -0.62309 0.802655
0.296292 -0.610631 0.802991
0.338287 -0.596514 0.802134
0.38093 -0.580672 0.79992
0.423995 -0.563083 0.79619
0.467224 -0.543762 0.790804
0.510343 -0.522764 0.783649
0.553064 -0.500179 0.774645
0.595097 -0.476132 0.763749
0.633725 -0.452328 0.751779
0.670511 -0.428026 0.738465
0.70607 -0.402898 0.723625
0.740934 -0.376561 0.706975
0.77625 -0.347987 0.687709
0.809581 -0.319045 0.666992
0.840812 -0.289946 0.644988
0.869864 -0.260896 0.621857
-0.226306 0.824314 0.590139
-0.201684 0.803707 0.626208
-0.176579 0.78109 0.660732
-0.150632 0.757114 0.693061
-0.123004 0.732662 0.722336
-0.0959709 0.707797 0.748841
-0.0715023 0.68148 0.772859
-0.0501565 0.657084 0.793953
-0.0290633 0.63298 0.81313
-0.00908986 0.609229 0.830762
0.0103608 0.586035 0.846973
0.0299371 0.56254 0.862472
0.0656444 -0.63802 0.809705
0.065504 -0.608325 0.831743
0.0653952 -0.57777 0.852717
0.0654022 -0.545319 0.873294
0.06546 -0.510928 0.893348
0.0655112 -0.47458 0.912725
0.0655199 -0.436298 0.931242
0.0654648 -0.396144 0.948698
0.0653269 -0.354224 0.964882
0.0650867 -0.310691 0.979582
0.064745 -0.26572 0.9926
0.0643158 -0.219509 1.00376
0.0638138 -0.1723 1.0129
0.0632131 -0.126809 1.0196
0.0625002 -0.0816643 1.02417
0.061686 -0.0362421 1.0266899999999999
0.060807 0.0100873 1.02714
0.0598719 0.0586691 1.02535
0.0589966 0.106698 1.02133
0.0582122 0.153943 1.01516
0.0576615 0.200247 1.00694
0.058094 0.245479 0.996869
0.058579 0.287377 0.98573
0.0578136 0.327775 0.973177
0.0567632 0.366637 0.95946
0.0556171 0.403856 0.944753
0.0544614 0.439346 0.929239
0.0533228 0.473034 0.913092
0.0520439 0.505956 0.895891
0.0813388 0.529317 0.882035
0.116415 0.521002 0.886476
0.155307 0.512951 0.888967
0.195493 0.504025 0.890612
0.23689 0.493956 0.891111
0.279373 0.482604 0.890265
0.322746 0.469854 0.887854
0.366774 0.455632 0.883684
0.411189 0.439911 0.877585
0.455704 0.422707 0.869429
0.50002 0.404076 0.859128
0.543836 0.384112 0.846639
0.586857 0.36294 0.831967
0.62632 0.34207 0.816226
0.663839 0.320847 0.799053
0.700059 0.298994 0.780235
0.735536 0.276188 0.759438
0.771445 0.251563 0.735714
0.805323 0.226739 0.710527
0.83706 0.201892 0.6840809999999999
0.866587 0.177189 0.65659
0.89387 0.152798 0.62823
0.0350908 -0.656848 0.795091
0.0053534 -0.646669 0.802922
-0.0241825 -0.636692 0.810173
-0.0546292 -0.626436 0.817329
-0.0863334 -0.615633 0.824307
-0.124223 -0.605354 0.830882
-0.167324 -0.594461 0.83544
-0.211387 -0.582224 0.839098
-0.256205 -0.568369 0.841553
-0.301523 -0.552797 0.842621
-0.347115 -0.535491 0.842081
-0.39272 -0.516469 0.839757
-0.438046 -0.495793 0.83552
-0.480118 -0.474965 0.829709
-0.520584 -0.453339 0.822286
-0.560092 -0.430632 0.81316
-0.599231 -0.406502 0.802123
-0.639322 -0.380004 0.788557
-0.677626 -0.35287 0.773233
-0.713986 -0.325322 0.756305
-0.748285 -0.297572 0.737944
-0.780448 -0.269821 0.7183309999999999
-0.810434 -0.242256 0.697653
-0.838237 -0.215042 0.676098
-0.863882 -0.188326 0.653847
-0.887408 -0.162216 0.631086
-0.0893943 -0.83357 0.60349
-0.0727415 -0.809179 0.637892
-0.053458 -0.788105 0.66543
-0.0326326 -0.767717 0.689612
-0.012275 -0.747705 0.7114699999999999
0.0076513 -0.727966 0.731567
0.0267927 -0.708385 0.750319
0.0461696 -0.688243 0.7685109999999999
0.277331 0.817649 0.584242
0.257441 0.79625 0.621787
0.237184 0.773162 0.657621
0.216215 0.748724 0.6914669999999999
0.194454 0.7234 0.722874
0.171907 0.697549 0.751639
0.149195 0.671456 0.777725
0.126045 0.645165 0.801411
0.104265 0.618833 0.82301
0.0848813 0.591817 0.842293
0.0674914 0.564942 0.860598
0.020692 0.526829 0.8840709999999999
-0.00817291 0.515281 0.890417
-0.0368134 0.503762 0.896569
-0.0664861 0.492025 0.902602
-0.100855 0.480256 0.909025
-0.142463 0.46648 0.914709
-0.185477 0.452563 0.918936
-0.229487 0.43758 0.921668
-0.274286 0.421296 0.92274
-0.319621 0.4036 0.921924
-0.365203 0.384461 0.919024
-0.410714 0.363914 0.913884
-0.45582 0.342048 0.9064059999999999
-0.497557 0.320427 0.897201
-0.537552 0.298348 0.886163
-0.576447 0.275521 0.873183
-0.614823 0.251616 0.858024
-0.653969 0.225739 0.839929
-0.691217 0.199611 0.8199839999999999
-0.726433 0.173429 0.798395
-0.759523 0.147383 0.775381
-0.790434 0.121642 0.751163
-0.819145 0.0963575 0.725961
-0.845664 0.0716602 0.6999879999999999
-0.870027 0.0476592 0.673451
-0.892293 0.0244399 0.646541
-0.912532 0.00206397 0.619427
-0.898909 0.106268 0.62842
-0.896325 0.065125 0.638048
-0.870505 0.262519 0.615932
-0.873577 0.218311 0.630625
-0.874989 0.174629 0.643624
-0.874827 0.131631 0.655002
-0.873155 0.0893704 0.664885
-0.835018 0.336384 0.6230519999999999
-0.840991 0.291232 0.640227
-0.845176 0.246241 0.655588
-0.847658 0.201668 0.669152
-0.848517 0.157692 0.680995
-0.847833 0.114391 0.691223
-0.792936 0.411252 0.625542
-0.801945 0.365861 0.645405
-0.809078 0.320188 0.663449
-0.814415 0.274548 0.679561
-0.818011 0.229201 0.693788
-0.819945 0.184344 0.706194
-0.8203 0.140078 0.716876
-0.744346 0.485602 0.622895
-0.756417 0.440801 0.6454799999999999
-0.766558 0.395206 0.66639
-0.774854 0.349188 0.685339
-0.781334 0.303047 0.702313
-0.786063 0.257061 0.717308
-0.789102 0.211441 0.730385
-0.790534 0.166303 0.741634
-0.690136 0.557244 0.61495
-0.704834 0.51447 0.639891
-0.717892 0.469794 0.663709
-0.729094 0.424195 0.68567
-0.738464 0.378004 0.705661
-0.746051 0.331538 0.723591
-0.751888 0.28507 0.739466
-0.756029 0.238824 0.753333
-0.758546 0.192922 0.765276
-0.635014 0.620622 0.60283
-0.65049 0.582079 0.629259
-0.664425 0.542029 0.654616
-0.677956 0.497917 0.67974
-0.689918 0.452527 0.702985
-0.7002 0.406385 0.724124
-0.708773 0.359793 0.743128
-0.715641 0.313031 0.759997
-0.720827 0.26632 0.774783
-0.724391 0.219779 0.787563
-0.593317 0.643855 0.61464
-0.609506 0.605804 0.642003
-0.624268 0.566166 0.66813
-0.637533 0.524354 0.6935209999999999
-0.6497 0.479688 0.718091
-0.660543 0.433943 0.7404729999999999
-0.669875 0.387515 0.760638
-0.677605 0.340707 0.77861
-0.683699 0.293744 0.794451
-0.688191 0.246714 0.808238
-0.531102 0.702257 0.595499
-0.550381 0.665953 0.62463
-0.56735 0.628411 0.652909
-0.582872 0.589222 0.679918
-0.596547 0.548037 0.706262
-0.608906 0.504766 0.73143
-0.620082 0.459994 0.75473
-0.62992 0.414201 0.775942
-0.638272 0.367755 0.795013
-0.645026 0.320886 0.8119999999999999
-0.650169 0.273594 0.827001
-0.484327 0.723078 0.603484
-0.503608 0.687513 0.634105
-0.521586 0.650098 0.663508
-0.538053 0.610908 0.691742
-0.553034 0.570045 0.718622
-0.566542 0.527624 0.743992
-0.578613 0.483854 0.767643
-0.589223 0.43902 0.789397
-0.598274 0.393427 0.809177
-0.605562 0.347278 0.827077
-0.610864 0.300313 0.843405
-0.436856 0.741848 0.610105
-0.456079 0.707198 0.641811
-0.474319 0.670426 0.672374
-0.49142 0.631731 0.701608
-0.507282 0.591287 0.729345
-0.521862 0.549318 0.755377
-0.535101 0.506068 0.7795529999999999
-0.546954 0.461816 0.801742
-0.557334 0.416879 0.821869
-0.565989 0.371622 0.839986
-0.572094 0.324294 0.857403
-0.36851 0.790032 0.582361
-0.389075 0.758544 0.615269
-0.408338 0.724839 0.647854
-0.426675 0.688945 0.6793
-0.444046 0.651052 0.709411
-0.460372 0.611335 0.737981
-0.475594 0.569998 0.764827
-0.489668 0.527283 0.789776
-0.50255 0.483445 0.812695
-0.514221 0.438761 0.8334739999999999
-0.524666 0.393512 0.852042
-0.532509 0.346879 0.869548
-0.321285 0.803364 0.585935
-0.341454 0.772898 0.619705
-0.360765 0.740259 0.652565
-0.379059 0.705423 0.684568
-0.396466 0.668537 0.715326
-0.412966 0.629764 0.744595
-0.428519 0.589294 0.772176
-0.443085 0.547338 0.797901
-0.456634 0.504122 0.821627
-0.469141 0.459868 0.843255
-0.480634 0.41473 0.8627239999999999
-0.491198 0.368541 0.880108
-0.273926 0.814869 0.58833
-0.294317 0.78521 0.622729
-0.313543 0.753528 0.656076
-0.331762 0.719797 0.688394
-0.349055 0.68403 0.719569
-0.365521 0.64635 0.749345
-0.381168 0.606918 0.777514
-0.395974 0.56592 0.8039
-0.409911 0.523557 0.828361
-0.422952 0.480022 0.850793
-0.435072 0.435444 0.871152
-0.446224 0.389718 0.889518
-0.247716 0.795506 0.624744
-0.267028 0.764764 0.658374
-0.285058 0.732097 0.690942
-0.302122 0.697491 0.722338
-0.318393 0.660991 0.752422
-0.333943 0.622716 0.7809969999999999
-0.348788 0.582822 0.807889
-0.362906 0.541487 0.832951
-0.376263 0.498887 0.856075
-0.388814 0.455151 0.877207
-0.40044 0.410264 0.8963949999999999
-0.221362 0.773971 0.659778
-0.239235 0.742385 0.692372
-0.255939 0.708952 0.7238249999999999
-0.271881 0.673677 0.754022
-0.287174 0.636636 0.782812
-0.301888 0.597948 0.810034
-0.316016 0.557764 0.835542
-0.329516 0.516249 0.859218
-0.342339 0.473529 0.880997
-0.354352 0.429641 0.900891
-0.194429 0.750699 0.692989
-0.210711 0.718488 0.724233
-0.226233 0.68447 0.75434
-0.241132 0.648707 0.783157
-0.255575 0.611291 0.810527
-0.269571 0.572344 0.836314
-0.283064 0.532017 0.860393
-0.296019 0.490431 0.882684
-0.308305 0.447641 0.903175
-0.16646 0.726225 0.723789
-0.181618 0.69351 0.753566
-0.196032 0.659049 0.782212
-0.210085 0.622928 0.809563
-0.223853 0.585262 0.8354699999999999
-0.237205 0.546192 0.859799
-0.250158 0.505822 0.882464
-0.26261 0.4642 0.903436
-0.138053 0.700975 0.7518279999999999
-0.151986 0.667871 0.780117
-0.165606 0.633056 0.807293
-0.179102 0.596616 0.833236
-0.192188 0.55885 0.857664
-0.205011 0.51976 0.880554
-0.217519 0.479356 0.901884
-0.108887 0.675231 0.777316
-0.122183 0.642094 0.80383
-0.135644 0.60666 0.829716
-0.148182 0.57 0.854253
-0.160755 0.532354 0.87718
-0.173212 0.493252 0.8987269999999999
-0.0827387 0.649825 0.7987609999999999
-0.0940177 0.616312 0.824832
-0.105776 0.58007 0.849853
-0.117347 0.543443 0.8729399999999999
-0.129742 0.506241 0.894176
[...]
CELL_DATA 3055
SCALARS gaussian_curvature float 1
LOOKUP_TABLE default
0.5154704288294786
0.34651015001116015
0.5147290163078028
0.3184563562469961
0.47126411771294024
0.743928542710538
0.36837594107178295
0.8324955336693339
0.6259032108488973
0.7331386648299575
0.9271163016006996
0.917067836241795
0.3596753670207704
0.37756620971010496
0.20037557196172442
0.42592030380156387
0.3859868327881111
0.2994240081029605
0.4521913566557183
0.38498175168371923
0.37834436377434716
0.5210625329978116
0.4222911185462148
0.5888498888912038
0.13734552720490886
0.192084922764214
0.18269731660934946
0.1941116785326825
0.34621745391101144
-0.0018666224379529361
0.28020168978826365
0.358999035425699
0.2434894935444713
0.22050720697534462
0.10961415860485349
0.616933579359457
0.06385100780167806
0.333272128582247
0.07104583914723332
0.10076285643275534
-0.331740659961467
-0.20198910566946043
-10.051629376062612
0.9102580112794656
0.9921243483002551
0.8955287484391061
0.8476435311678892
-8.795807142477305
-20.72997791453336
0.9104683521536499
0.9242919144980234
1.0042824424573444
0.708734853548089
0.8988256880413198
0.7612964293329081
0.8687944586487213
0.7791504172115264
0.9154656631223317
0.9123790643943023
1.0025187520467693
1.1010239480388397
0.8822682106181363
0.99829353884175
0.7783807377133444
0.9840501073741529
0.919413737455832
0.9225799605674287
0.7536669548277031
0.7757461559113409
0.7844594256202406
0.7415424756732256
0.9270881104537532
0.6785017908459299
0.8817807725033011
0.9128476114341006
0.6600837920463085
0.6579648397331888
1.0671227562996783
0.6119441138714183
0.8985553408598903
0.8558420418970258
0.3541670785685869
0.3392660719161813
0.8471158771197076
0.4519415911300013
0.786465819601192
0.7781538999597264
0.7275523078001155
0.9069249832507414
0.6819545447714919
0.8614910597571047
0.776847782404473
0.8699212683223563
0.8358795831293355
0.8877397379542215
0.7240623183632702
0.795226007408462
0.9106798830544429
0.844655442965444
0.9110438421106279
0.8790610872146498
0.9348181297786049
0.9203081932436348
0.8313948856076881
0.7698335617303768
0.9485971309905848
0.8940156492790734
0.9496998270145502
0.927101100199017
0.9635702223504062
0.9501551801946113
0.8786392896586186
0.8504241702364392
0.9760535055060564
0.9380098306977205
0.9786304622155219
0.9631855142227193
0.9846446685240982
0.9732640813924134
0.9276500597206823
0.901364969601524
0.9962159686140507
0.9721348685234037
0.9992341194081611
0.9905979673103167
0.9983989505529889
0.9894046071725018
0.9657203135922111
0.9464111883144883
1.0090076707160316
0.9978131716754198
1.0125514731332739
1.0099931261905064
1.0071393792476397
0.9995488098787073
0.995843962372476
0.9822142030761801
1.0165387972277766
1.0156094452349531
1.0198037973698537
1.0214327923197977
1.010814305901178
1.0049586903382837
1.016300177596912
1.0087146492495214
1.018599646758658
1.0250895200850612
1.0214526643036896
1.0263135426801488
1.0111202573014375
1.0065999165860349
1.0287281307715177
1.025762135368213
1.0178636773871514
1.0289119595368965
1.0206309902297206
1.0268183940030062
1.0098806161923164
1.0059902136516339
1.0348180889914829
1.035858282821192
1.0154019071209879
1.028516840165072
1.0173183621511057
1.0242458914219041
1.0080192158971317
1.0052652378110294
1.035114217113979
1.0393219004064997
1.012347873889074
1.0259108756699895
1.0134003644999354
1.0200358370100522
1.0049573349874932
1.0025451320256686
1.033172073293898
1.0381044659947196
1.008443674460183
1.0213609411126041
1.0093731727728368
1.015654966915141
1.0035563931340385
1.0011225442722098
1.028954410501805
1.0348905040231613
1.0058910232210545
1.0168380488180322
1.006997686509159
1.0116629179638326
1.0020348251509497
1.0006296933765877
1.022763379089855
1.0291737665761642
1.0045316471030974
1.0121489182005803
1.0059503585559741
1.0089023981987835
1.0030817020592733
1.0016915433952303
1.0171434769903536
1.0225828070254286
1.0056284165650273
1.009817001014357
1.0071243606052822
1.0083609054118026
1.2458579014178024
1.244729898364925
1.0132228438864743
1.0173027998606738
1.2450168148888614
1.0085009704980312
1.245812936164592
1.0080605469672412
0.7487966316915786
0.7511336622607745
1.0100589626505985
1.0133247404364871
0.7684018632866626
1.0079866300179081
0.7656864819127793
1.2430236378413753
1.0084425024805799
1.0100744115824805
1.2422875440345575
0.6777076557316184
1.007761153880332
1.0089531201498216
13.513396520245394
14.078017599263083
1.0078023445950808
28.26237407243514
-1.4879166094072822
-5.5446945686968485
-11.375687844046215
0.9107664793233179
-3.174961295879771
0.8828129844241803
0.8538631685106579
-8.96130763319691
-22.757659384162668
0.9055982609488364
0.9212953830675439
-4.043422655633387
0.8685116014605285
0.8173456645306929
0.8283675986007513
0.8061514775844383
0.8938677356112161
0.9030009002003867
1.0170875583160828
0.18514370254243162
0.8290906908684945
1.025466638420417
0.7806932135538376
0.9992852821220733
0.8703261300403433
0.8949591719232879
0.7895982062229834
0.7700249391723943
0.7559357063864905
0.7585532244590696
0.8806993955694967
0.6647248450738402
0.8025951151040615
0.8685880614432574
0.5715568341510442
0.5764204596166143
1.0164895368236686
0.4293642596246632
0.7342254303720744
0.3630747036687255
0.8649039658912325
0.7757732333546312
0.2138393713445131
0.26220356648566473
0.290232332073759
0.10551145049264016
0.01597100304567739
0.20240084816790763
0.659854175080814
0.9522617024466932
0.301544619805891
0.34358298470182624
-0.09669936157915274
0.3497491874143467
0.016768064908567762
0.27678676877983693
0.2321691366914792
0.7144613443233643
0.3489244131748479
0.39760924324165964
-0.025365852697652402
0.2586730883781547
0.17996557372943944
0.2039858109339774
-0.24991482982903973
0.12108758604781239
0.2946205317547864
0.3119094379169698
0.10528381892219218
0.2350904139396236
0.09671933785007043
0.2025056956629639
0.14316571307663373
-0.006701509247506329
0.3331707105679387
0.33801355093892416
0.07153445032702803
0.32942658351825044
-0.0003562957373452278
0.06271048594013874
0.33100635928405364
0.3021657680570822
0.010569455006193098
0.2195633147142787
0.28977791042556744
0.10652344320544849
0.3215094398029924
0.3396560781328572
0.2765652054363549
0.2077508190835568
0.6561972160863353
0.026995515640194673
0.2604559160454293
0.27016967906117584
0.21882047089035728
0.9049433452125554
0.1382611368521706
0.6252152038395486
-0.046840385823857356
0.20665328075828612
0.2122132226801891
0.16336646144583222
0.8966648253406921
0.7806516666727927
0.07540315092864223
0.6018213692915158
-0.11498991158293125
0.15793464019779882
0.15302893534232317
0.10473748441784211
0.8956694990361992
0.771951032004113
0.01841307852812589
0.5826875668248782
-0.1774812894815103
0.11386864703451197
0.09758199099086677
0.04180478529349058
0.8985294936603658
0.7676246967779701
-0.03517342833729112
0.5674377702125779
-0.23712165881696393
0.07413960321688282
0.041697294837877465
-0.021441653843600826
0.9047289455560715
0.7670017492134934
-0.08571928796103553
0.5557374405493728
-0.29082523279140365
0.03937023368515796
-0.007224296239955547
-0.08175594392071538
0.9136837517795937
0.7693770897905974
-0.12977724586214245
0.5481658094552538
-0.3357243659212693
0.012023222919565424
-0.04757751029726583
-0.13013050550544702
0.9248477194389354
0.7739984548990604
-0.16547123790366797
0.5450130549729963
-0.3690115571872463
-0.006274853151416793
-0.08147647104692086
-0.16952986349964558
0.9372219058716937
0.7809139838019444
-0.19153976307454793
0.5452700903572595
-0.38723455815586577
-0.013161408759887944
-0.10860517307103074
-0.20208220032698204
0.9476398494460552
0.7883037568360765
-0.2045611680057904
0.5529512158740109
-0.3742372864568031
0.009201948027020318
-0.12781756663977675
-0.22755636678633495
0.9574780535586258
0.7937351880135228
-0.19305435361740061
0.5464051811455899
-0.34523772909722766
0.01078257118193951
-0.1449548482977863
-0.24939417977117512
0.9357034178273026
0.803027022393348
-0.18718168086269513
0.5180554414727137
-0.3350796343359079
0.014137187720333788
-0.16486999862915222
-0.2748265415440704
0.8919765742965038
0.7740019406874423
-0.19427360456334958
0.5112064800918485
-0.35391292108822264
0.00235034151073385
-0.17929223868929073
-0.2977865862283061
0.8853050038366223
0.7621568442888974
-0.22221643992533854
0.5210820022762221
-0.4060526605772073
-0.019017480974603096
-0.19605251889811917
-0.3127676341869444
0.9117229739520392
0.7670898369313245
-0.26072989851592304
0.5474741637850694
-0.47123269696101516
-0.050063814262626904
-0.20330615239351604
-0.32246499342758095
0.9682789638913808
0.7924282908075253
-0.29492985910787883
0.5373129874489568
-0.5172675315906172
-0.10619356773216984
-0.2023532796314263
-0.3212323713621556
0.9873800738644221
0.8208080722591498
-0.3085654740727448
0.5073355262166697
-0.5367851995923077
-0.13195816316134068
-0.1983188124295353
-0.3144442904709552
0.968255225696445
0.8047932181630707
-0.3120297226285128
0.46460585018779976
-0.5331165418680321
-0.1613080054826867
-0.186100661420463
-0.30060947674104843
0.9263732847350492
0.7907289708656843
-0.30403953852304605
0.4980412956003133
-0.5069443467685546
-0.07667204903054081
-0.16474624672985308
-0.2678941888667895
0.9464118302361129
0.7488299637003624
-0.2880442651213155
0.125717740357036
-0.2293429559380004
-0.24585324819766274
-0.15052829689549657
-0.2301350867495428
0.6346535951541116
0.8806343404023343
-0.03591154682444008
-0.0951667292010798
0.039068685979124405
-0.003676204137852933
-0.13971592513817438
-0.19563136602591585
0.2315876681574507
0.5898370039579433
-0.017658755561071746
-0.11899561177027293
0.08139454845955803
0.022802582367334193
-0.1124603051694266
-0.15953724194296476
0.18149054711810192
0.6235643521090524
0.02900280080858503
-0.10014155851174908
0.13010328293360882
0.05955088970549855
-0.07018753110016993
-0.11259733305755176
0.17605879306337158
0.5994890928308296
0.07684550733962907
-0.07180529978997881
0.18244094061446184
0.10434252671296426
-0.02466451457545616
-0.07059707089023134
0.1825034724981432
0.5900600135687413
0.1335658090200558
-0.03445617228620642
0.2504088618064918
0.1604852944017272
0.024429394347003103
-0.028205495973676054
0.2002120479775111
0.5933195192648038
0.1981023716771147
-0.007330737608877633
0.07591417488623953
0.01908425034256395
0.20357861197262295
0.6060628642469453
0.05737200527931549
0.5658796241687784
0.9499142213218352
0.7150405794880336
0.8383254030895803
0.9382314688437696
0.7180157484882937
0.6991402319599488
0.74762575377662
0.7430966670386898
0.6682973652538143
0.7544156709550409
0.7586332660050601
0.8776642271301405
0.8399363057346061
0.7316513434383786
0.8361099408935055
0.8026242803821535
0.8738493956360178
0.8322851959351938
0.6885745841931594
0.7552590793621156
0.897665252944673
0.8313483084610429
0.9053308111708573
0.8724995271985793
0.9287135425819486
0.9010713204321928
0.8234423280938019
0.7516415407696933
0.9573002555816514
0.900373758898898
0.9637043585325921
0.9396091458221166
0.9786435443007344
0.9577223895272158
0.889279402778379
0.8534991907108193
1.0009941930821795
0.9606894040721988
1.0082841009975518
0.9920745246980468
1.0141940680032047
0.9982475221727001
0.9538233849269725
0.9216487705563712
1.032946993250843
1.0074155026279403
1.0387858387849775
1.0294639244615802
1.038238268360165
1.0267752510278991
1.0034802623386603
0.9812732652635404
1.0517734469542412
1.0397389990229642
1.056429231218583
1.0537166976107035
1.0514157972655362
1.0437194642055947
1.0390792071263015
1.0248688922756375
1.061182031431341
1.0599885257870592
1.0645472469860904
1.066066274949688
1.056628631880745
1.051518181979282
1.0621726249742742
1.055241004901256
1.0623266588343139
1.0686715576592705
1.0638943112848729
1.068720182146232
1.0545149957273472
1.0521821843285277
1.0726067658287017
1.0721855823063342
1.0572369603273493
1.068488629492268
1.0575857306808674
1.064011528984427
1.0486795718468906
1.0475252596974478
1.0740772784441637
1.078244039267559
1.0494121621043377
1.0632455244048653
1.048887698246409
1.0562952622433768
1.041092861130163
1.0407090412262339
1.0696571474463423
1.0760118009778
1.0401233017338962
1.0547129431649453
1.0382330300498304
1.0454151074839118
1.0332202811796367
1.0336653767179746
1.061938156786582
1.0699320989064907
1.029731571750455
1.042953128116257
1.0281808961720755
1.0342203751037962
1.0242146505824086
1.0258130883275245
1.0497792749447121
1.0594664679340036
1.0221900124615835
1.0319852847432929
1.020840108312745
1.0245959016627337
1.017833244669644
1.01830720721209
1.0377556106454846
1.0468168478344433
1.016512662641139
1.0226093086841264
1.0156200629783334
1.017960915671332
1.0139954801341975
1.0139661580138641
1.0273922925674237
1.035149211448223
1.0130768351780688
1.0169551302980013
1.0130371815590973
1.014574623986031
1.011323458886707
1.0113495041800302
1.0195571446246698
1.025345913881298
1.011890470974199
1.0135185159702427
1.0128962385975446
1.0129868411666547
1.0103499915857523
1.0097433258792892
1.014480457741381
1.018138580083838
16.34769505219721
1.0120837731560894
16.58322769377721
1.2475258121669808
31.452544831111787
16.116205538123676
1.0122246786478621
1.014089688429566
1.2457985064430903
0.6744973025982832
1.0095103245995993
1.011378535815263
13.80682298537854
14.377300409527528
1.0086865449037807
28.803747575109263
0.19433455919207454
0.1553120168552269
0.1596441952960972
0.21456800642560742
0.2787189032186487
0.12694625427148504
0.19794292617612075
0.18277900791756463
0.24944350138133004
0.1273638356101131
0.26366066507022823
0.24559538142373755
0.24716669890742038
0.0864086934238056
0.1295746225388946
-0.0978478764084856
0.16360784685629337
0.09963773720506568
-0.14081478523412305
0.08793776161750887
-0.02177398922873426
0.1864494400706869
0.1743172042941922
0.6099631325409935
0.13850331299259228
0.20629307270909414
0.7130946770938502
0.2015738819567491
0.5821858949305005
0.9209419607935261
0.8386200763440478
0.741730213960272
0.25947075130087516
0.01187936288589336
0.8392428849358242
1.0549092937064548
0.7598551962980642
0.7272146998147819
0.7027731890139959
0.7670225549144896
0.8833223029240076
0.6393720393403658
0.7950581325153954
0.7278745708031835
0.7686622801324232
0.8518419341880545
0.8433278303311238
0.8622581184862614
0.7455406796823418
0.803118695189858
0.8768859039208854
0.8599099573479336
0.8757248679025387
0.9102813865944268
0.9103903408418996
0.92601657137865
0.8732122359041836
0.8176935978826874
0.9285880191674354
0.9056087207921009
0.9391921284038023
0.96276726337894
0.9691525026964356
0.977101407134823
0.9371108369714423
0.9057964174111846
0.9713528769822135
0.9529088175549323
0.9906816067901869
1.0001068500025772
1.0106050159638644
1.012081354737867
0.9914581075089797
0.9678477119828682
1.0012123778942872
0.9867925486298066
1.027029456282963
1.024421284718357
1.0382682304621433
1.0341837201235347
1.031481018054506
1.0158330784542002
1.020030555547562
1.0087961534587822
1.0501408362408144
1.0390131928221897
1.0542320398303866
1.0471889067503704
1.0574152616854817
1.0499942176783534
1.0316417061710934
1.0224215043016434
1.0641139800564865
1.0466190994550928
1.0628413832853292
1.0523896357639515
1.0736781236604482
1.0710706088790154
1.0370979719291245
1.030296292573306
1.0685451000764643
1.047469741793152
1.0619240389720395
1.051300428210105
1.0787543345485804
1.082614761361407
1.0376364081742022
1.0330351746190336
1.064246236905047
1.044053400077184
1.0549631277719744
1.045393901706046
1.074867474106099
1.0827545106452077
1.0340324004018067
1.031446094915778
1.055476151440475
1.0368924007392377
1.046760671598154
1.0377461469628453
1.0662998851607361
1.076408098693288
1.028310508153718
1.0267910094451493
1.0470660616628193
1.0307041166982485
1.0384232744237205
1.0310758540944585
1.0558649772853572
1.0663833209409532
1.0229756592928119
1.021435796971889
1.0374967941949538
1.024461543109409
1.0303005882824774
1.024612757526195
1.0450721473884395
1.0547975432397443
1.0189867745636678
1.0178726281432806
1.0289694099220952
1.0200809372857642
1.0234736171999645
1.0202729753199162
1.0344685226843544
1.0433750542382223
1.0157846871626734
1.014841738857363
1.0218796874577023
1.0172079227121893
1.018598587254769
1.017127464389304
1.0256324734156945
1.0327255159202158
1.0151506688231715
1.013919471307808
1.0170684449443501
1.015831580563148
1.0154902960304655
1.0157245545147282
1.019192978601119
1.02447590686953
1.0149987134259402
1.0142373433630785
1.0135613924383227
1.0152433366385647
1.0138798730725913
1.0153275587885706
1.0147234072104454
1.018776844459357
1.2377205408365453
1.237368891575501
1.012997719109766
-15.401320761851615
1.2271158487368279
-15.188650317940532
1.0123699964958448
1.014414165230793
-15.849174350940283
0.7899511738978835
1.2246114134411186
0.6336844034770392
1.0103595308150204
1.0122362434968084
13.720273288889118
14.309615340309822
1.0087745722716441
28.93685966516734
2.6067061670704232
0.11176846978676391
-2.1422792943175955
2.96852284517259
0.25402442664978697
0.28112524174365017
0.061564520504506476
4.254408386008212
-1.7285038171860045
-6.470132928639174
0.7404024402345069
1.0119219605030745
0.6537967638096385
0.12350834500422378
0.6328350349286694
0.3221073373623984
0.629850098273279
1.543064117042913
0.3816089739988934
0.8060431630838959
0.6015191373177344
0.2560639370791247
0.5010618896692998
0.4663343869969611
0.6589905828294687
0.6663598149040441
0.032137479412691065
0.35628150869063435
0.49382098910773053
0.37845121839419316
0.41908483520931317
0.33844256716811444
0.5673763192512145
0.6320886653245179
0.402470530482795
0.2664272414191294
0.4789886820131463
0.292333331032594
0.42970087811288793
0.32368779517353435
0.48632838837785414
0.4999798717175049
0.27839181407583846
0.34852036229996075
-8.347736716885855
-1.730588251343812
-2.1882594675891065
-5.687539076636892
0.9355643698901994
0.9141922791396183
0.9201472601246661
-5.6184712751202115
0.6171948503210881
0.934923614789172
1.0742253114653555
0.8975868596519048
0.9179387638049659
0.89463627568398
0.9090331988519933
0.8585766505325824
0.9442498715369766
0.929741973951992
0.9313097151706651
0.8712171829608919
0.9180797626668129
0.8705301717684509
0.9029958283063586
0.8013930150107841
0.7858018986145497
0.9345710252682735
0.93732767160048
0.8181990734130342
0.908621975715701
0.8134602497691479
0.8714174955339071
0.764947240897409
0.747454171302718
0.9284506242662758
0.939315739458394
0.7262142708534804
0.8789785607502412
0.7154303269299567
0.8102373710619583
0.9478987003263676
0.9818928467264099
0.9157961456952437
0.9280637290294842
0.9146089310054701
0.8214840460640235
0.8912132213412428
0.7032812922677947
0.6896101778096954
0.712116003207069
0.883367188090924
0.9089380980338613
0.6646096928043645
0.7133255486150925
0.5869578460080781
0.8236056308922541
0.5407378551322094
0.5423426304733129
0.8187473740243789
0.8705862597039817
0.4627333330416111
0.9284124309192332
0.4465568355944623
0.6755881485879084
0.206899220934456
0.20725189622876794
0.791241827980909
0.7918568533632165
0.011825097592016576
0.028910630579616965
0.07511783861213252
0.053301928069056856
-0.029923231515837076
-0.06882467504651311
0.13692897770379303
0.02493337822507982
-0.0975798854832548
-0.2151216706132827
0.12802368503980213
0.04938334344045034
-0.1036721545069236
0.025795638552154623
-0.05976726626753569
0.05816117945525681
0.5320914095220752
0.4700405447184104
0.7670123458385214
0.7836018226342082
0.6405468831042058
0.23038688959826392
0.04012524162706918
-0.22517755530514386
0.7211609553210274
0.6897529398049745
0.6886662415073451
0.6406687491956053
0.7761376795544659
0.9304445436540905
0.8310258493713786
0.4949594291092711
0.795823364148103
0.72082785823852
0.8233295875933948
0.7963315739955515
0.8312048334551785
0.7790244350478592
0.6755407247848682
0.7366545253083574
0.8854224184118464
0.8331961402043196
0.9042001682837193
0.8789719036740357
0.9149709909773525
0.8882596294659764
0.8268050928874644
0.7446533932250443
0.9571931121562536
0.9148924549901677
0.9733498511076158
0.9562774585512135
0.9759951517249088
0.9525507804178805
0.9057252567432813
0.863413658110294