# vtk DataFile Version 1.0
Tissue data
ASCII

DATASET POLYDATA
POINTS 1593 float
0.0659788 -0.683677 0.764279
0.0493882 0.565826 0.880684
0.204071 -0.812276 0.535598
0.186764 -0.796586 0.575736
0.168549 -0.779323 0.613985
0.148696 -0.761292 0.649332
0.127148 -0.742974 0.681437
0.105575 -0.724416 0.710571
0.0852978 -0.703987 0.738164
0.0999315 -0.676575 0.771493
0.13828 -0.667602 0.778076
0.17644 -0.658535 0.7827109999999999
0.215703 -0.648248 0.786002
0.256 -0.636474 0.7879309999999999
0.297194 -0.623011 0.788354
0.339096 -0.607735 0.787091
0.381473 -0.590582 0.783953
0.424054 -0.571543 0.778764
0.46654 -0.550658 0.771377
0.508617 -0.528018 0.761684
0.549965 -0.503753 0.749621
0.590272 -0.478032 0.7351759999999999
0.626966 -0.45266 0.719456
0.661523 -0.426875 0.7021189999999999
0.694512 -0.400362 0.682948
0.726393 -0.372745 0.661625
0.75816 -0.343026 0.637155
0.78757 -0.313126 0.6111219999999999
0.814583 -0.283304 0.583612
0.839083 -0.253723 0.5551699999999999
-0.22001 0.810051 0.5249
-0.198418 0.794826 0.567897
-0.175681 0.77731 0.609432
-0.150928 0.758203 0.648564
-0.12377 0.73841 0.684033
-0.0962151 0.717849 0.716066
-0.0714009 0.695164 0.745784
-0.0497048 0.674258 0.7718309999999999
-0.0285213 0.65308 0.795983
-0.0087066 0.631782 0.818613
0.0104375 0.610591 0.839799
0.0295016 0.588734 0.860414
0.06534 -0.657737 0.7938419999999999
0.0645247 -0.630851 0.8223699999999999
0.0638315 -0.602725 0.850058
0.0633257 -0.57239 0.877728
0.0629114 -0.539733 0.905216
0.0625023 -0.504658 0.932307
0.0620435 -0.467101 0.9587289999999999
0.0614969 -0.427036 0.984166
0.0608232 -0.384488 1.00826
0.0599777 -0.339546 1.0306
0.0589475 -0.292339 1.05081
0.0577473 -0.243039 1.06848
0.0564103 -0.191893 1.08325
0.0550067 -0.142018 1.09421
0.053546 -0.0919609 1.10178
0.0521666 -0.0411081 1.10598
0.0511409 0.0111074 1.10666
0.050377 0.0658516 1.10356
0.0501085 0.119419 1.09671
0.0501182 0.171465 1.0864
0.0505117 0.221792 1.07291
0.0527173 0.270443 1.05657
0.0549147 0.314622 1.03889
0.0546796 0.356851 1.01934
0.0539633 0.39687 0.9983839999999999
0.0530976 0.43459 0.97637
0.052222 0.469994 0.953607
0.0513939 0.503087 0.93038
0.0504918 0.534938 0.906134
0.0790566 0.556129 0.887769
0.114075 0.546667 0.894799
0.153905 0.53709 0.899158
0.195084 0.526673 0.90205
0.23748 0.515076 0.9031129999999999
0.280908 0.502123 0.902097
0.325104 0.487663 0.898752
0.369755 0.471611 0.892864
0.414514 0.453941 0.884269
0.459016 0.434693 0.8728589999999999
0.502899 0.413964 0.858591
0.545811 0.391896 0.841484
0.58743 0.368666 0.821622
0.625131 0.345908 0.800546
0.660476 0.32294 0.777798
0.694083 0.299491 0.75313
0.726458 0.275249 0.7261569999999999
0.758614 0.249349 0.695734
0.788333 0.223487 0.663786
0.815553 0.197854 0.630568
0.840231 0.172628 0.596307
0.86235 0.147617 0.561594
0.0355273 -0.675062 0.77499
0.00582617 -0.666191 0.784879
-0.0236413 -0.657124 0.794302
-0.0538614 -0.64735 0.803943
-0.0851508 -0.636428 0.813835
-0.123214 -0.625566 0.823409
-0.167005 -0.613691 0.8301189999999999
-0.211772 -0.600469 0.835311
-0.257244 -0.585507 0.838672
-0.303095 -0.568671 0.8400029999999999
-0.349045 -0.549932 0.839051
-0.394777 -0.52932 0.835623
-0.439947 -0.506928 0.829592
-0.481616 -0.484364 0.821476
-0.521366 -0.460973 0.8112429999999999
-0.559807 -0.436495 0.798805
-0.597477 -0.410615 0.783933
-0.635583 -0.382402 0.7658699999999999
-0.67152 -0.353705 0.745707
-0.705152 -0.324777 0.723676
-0.73639 -0.295852 0.70003
-0.765191 -0.267145 0.675018
-0.791544 -0.238847 0.648901
-0.815496 -0.211129 0.6219
-0.8371 -0.184164 0.594178
-0.856377 -0.157842 0.566308
-0.0863714 -0.822166 0.546552
-0.0738516 -0.802092 0.588116
-0.0543794 -0.785454 0.620224
-0.033049 -0.769132 0.648203
-0.0120395 -0.752865 0.673576
0.00829857 -0.736473 0.69724
0.0276109 -0.719842 0.719736
0.0468705 -0.702371 0.741987
0.26908 0.801967 0.517699
0.252157 0.786058 0.562395
0.23428 0.768154 0.605514
0.215076 0.748555 0.64671
0.194335 0.727763 0.685239
0.172203 0.706142 0.720763
0.149387 0.683966 0.753184
0.125825 0.661358 0.7828229999999999
0.103404 0.638382 0.810017
0.083604 0.614225 0.834774
0.0660609 0.590106 0.858433
0.0205043 0.555309 0.889634
-0.00743183 0.544415 0.89848
-0.0350658 0.533093 0.907334
-0.0635773 0.521005 0.916333
-0.0976116 0.508102 0.9261119999999999
-0.140381 0.492882 0.93482
-0.184759 0.477369 0.941235
-0.230195 0.460681 0.945301
-0.276393 0.442575 0.946803
-0.323011 0.422928 0.945469
-0.369666 0.401721 0.941082
-0.415945 0.379017 0.9335
-0.46143 0.354949 0.922671
-0.503146 0.331213 0.909539
-0.542675 0.307092 0.894002
-0.580632 0.282316 0.8759709999999999
-0.617561 0.256579 0.855198
-0.654641 0.229 0.830762
-0.689346 0.201404 0.80421
-0.721581 0.174014 0.775854
-0.751301 0.147026 0.746006
-0.7785 0.120612 0.714967
-0.803201 0.0949218 0.683028
-0.825446 0.070065 0.650471
-0.845325 0.0461324 0.61753
-0.862939 0.0232187 0.584404
-0.878383 0.00134505 0.551411
-0.867076 0.102493 0.562679
-0.865734 0.0627527 0.574184
-0.839005 0.254497 0.5488109999999999
-0.843628 0.212155 0.566187
-0.846542 0.169966 0.58162
-0.847794 0.128127 0.595127
-0.847315 0.0869125 0.607151
-0.806502 0.327036 0.558256
-0.814155 0.283828 0.5785049999999999
-0.819872 0.240481 0.596921
-0.823821 0.197265 0.613162
-0.826043 0.154393 0.627381
-0.826555 0.112036 0.639765
-0.766978 0.400706 0.5622119999999999
-0.777795 0.357458 0.585655
-0.78659 0.313602 0.607304
-0.793488 0.269497 0.626653
-0.798518 0.225386 0.643844
-0.801777 0.181515 0.658879
-0.803315 0.138036 0.671893
-0.720508 0.47377 0.560005
-0.734485 0.431402 0.586697
-0.746408 0.387904 0.611808
-0.756401 0.343656 0.634597
-0.764441 0.29895 0.65516
-0.770613 0.2541 0.673405
-0.774964 0.209341 0.689394
-0.777569 0.164837 0.70321
-0.668034 0.543864 0.55141
-0.684664 0.503857 0.580897
-0.699579 0.461657 0.609497
-0.712593 0.418172 0.635934
-0.723658 0.373712 0.6601899999999999
-0.732833 0.328625 0.682059
-0.740127 0.283204 0.7015359999999999
-0.745592 0.237707 0.718635
-0.749289 0.192297 0.733433
-0.614237 0.605448 0.537661
-0.631632 0.569975 0.568943
-0.64743 0.532683 0.59937
-0.662865 0.491139 0.629608
-0.676639 0.447899 0.65782
-0.688645 0.403501 0.6836369999999999
-0.698825 0.358259 0.7070029999999999
-0.707178 0.312485 0.72787
-0.713713 0.266431 0.746267
-0.718482 0.220255 0.76225
-0.575621 0.629831 0.552149
-0.593524 0.595032 0.5848679999999999
-0.610091 0.558261 0.616272
-0.625196 0.518983 0.647061
-0.639215 0.476549 0.677061
-0.651799 0.43259 0.704597
-0.662764 0.387522 0.729582
-0.672006 0.341676 0.752005
-0.679484 0.295307 0.771894
-0.685222 0.248541 0.789307
-0.514164 0.68613 0.5299389999999999
-0.535294 0.653296 0.564404
-0.553922 0.619052 0.598436
-0.571164 0.582788 0.631119
-0.586647 0.54423 0.663235
-0.600806 0.503214 0.694169
-0.61371 0.460271 0.723031
-0.625182 0.415868 0.749516
-0.635066 0.37039 0.77351
-0.643239 0.324091 0.7950389999999999
-0.649683 0.277001 0.814177
-0.470187 0.708003 0.539725
-0.491046 0.676248 0.5763159999999999
-0.510651 0.642286 0.611684
-0.528737 0.60617 0.646013
-0.545375 0.567982 0.678971
-0.560545 0.527825 0.71034
-0.574244 0.48589 0.739835
-0.586428 0.442457 0.767193
-0.596979 0.397838 0.792281
-0.605689 0.352257 0.815172
-0.612348 0.305477 0.836224
-0.425114 0.728028 0.547872
-0.4458 0.697335 0.585896
-0.465568 0.664143 0.622853
-0.484201 0.628649 0.658523
-0.501587 0.590988 0.692698
-0.517689 0.551357 0.725071
-0.532431 0.509989 0.755414
-0.545751 0.467157 0.7835179999999999
-0.557542 0.423186 0.80924
-0.567538 0.378466 0.832598
-0.575002 0.331327 0.8552649999999999
-0.356511 0.773524 0.515299
-0.379303 0.746026 0.554158
-0.400062 0.716342 0.593397
-0.419827 0.684131 0.631576
-0.4386 0.649555 0.668472
-0.456313 0.612739 0.703824
-0.472912 0.573854 0.737381
-0.488357 0.533114 0.76888
-0.50259 0.490767 0.798104
-0.515576 0.447087 0.824859
-0.527272 0.402369 0.8489949999999999
-0.536377 0.35588 0.871976
-0.311533 0.787578 0.519621
-0.333457 0.7615 0.559847
-0.354292 0.732985 0.599297
-0.373877 0.701962 0.638226
-0.392518 0.668521 0.6760349999999999
-0.410231 0.63278 0.7123889999999999
-0.426993 0.594888 0.747016
-0.442772 0.555028 0.779664
-0.457536 0.513409 0.8101039999999999
-0.471249 0.470244 0.838149
-0.483918 0.425691 0.863659
-0.495606 0.379594 0.886663
-0.266031 0.79987 0.522562
-0.288015 0.77478 0.56357
-0.308629 0.747342 0.603728
-0.328021 0.71755 0.643066
-0.346359 0.685363 0.681463
-0.363833 0.650851 0.718552
-0.38049 0.614135 0.754043
-0.396323 0.575369 0.787677
-0.411308 0.534731 0.819226
-0.425414 0.492401 0.848498
-0.438602 0.448502 0.875372
-0.450804 0.402939 0.899883
-0.24299 0.785911 0.56606
-0.263546 0.759527 0.606578
-0.282554 0.730918 0.64627
-0.300453 0.70002 0.684981
-0.317507 0.666826 0.722523
-0.333842 0.631411 0.758621
-0.349502 0.593894 0.793018
-0.364472 0.554428 0.825483
-0.37872 0.513169 0.855819
-0.392194 0.470236 0.883892
-0.404754 0.425615 0.909696
-0.219208 0.769534 0.608287
-0.237813 0.742117 0.648003
-0.255103 0.712515 0.686801
-0.27158 0.68068 0.724518
-0.28742 0.646641 0.76095
-0.302717 0.61048 0.795856
-0.317479 0.572319 0.829008
-0.33167 0.532298 0.860202
-0.345238 0.490529 0.889289
-0.358035 0.447039 0.916215
-0.193952 0.751188 0.648652
-0.210541 0.72292 0.687156
-0.22633 0.69247 0.724756
-0.241533 0.659847 0.761246
-0.256319 0.625107 0.796397
-0.27072 0.588339 0.829992
-0.284685 0.54967 0.861819
-0.298182 0.509199 0.891714
-0.311075 0.466965 0.919594
-0.166808 0.731367 0.686323
-0.181942 0.702345 0.723448
-0.196435 0.671156 0.75971
-0.210592 0.637852 0.794862
-0.224534 0.602521 0.82866
-0.238131 0.565278 0.860888
-0.25141 0.526198 0.891377
-0.264272 0.485308 0.920027
-0.138403 0.710485 0.720736
-0.152266 0.680789 0.756486
-0.165776 0.648927 0.791407
-0.179219 0.61498 0.825274
-0.192326 0.579205 0.857677
-0.205248 0.541588 0.888529
-0.217959 0.502103 0.917751
-0.108908 0.688854 0.752175
-0.121984 0.658821 0.786136
-0.135158 0.625991 0.819937
-0.147492 0.59149 0.852518
-0.159939 0.555493 0.883452
-0.172383 0.517512 0.913015
-0.0821915 0.667001 0.77863
[...]
CELL_DATA 3055
SCALARS gaussian_curvature float 1
LOOKUP_TABLE default
0.5501545125932665
0.37231229646645847
0.5386662267823589
0.33929574634654086
0.5354719826369869
0.8861159563324753
0.3751218407842532
0.9899114302566611
0.656759530835247
0.8453193119563189
1.1131745548602998
1.083866196295051
0.42527668857524936
0.4469117239198289
0.22623958097457741
0.5273897302209827
0.5002568587312864
0.4061936640865736
0.49282751859550494
0.48193572186170597
0.4729683441972887
0.6551334173768141
0.5255682714281766
0.7272727542724483
0.18228868389081032
0.2469687003432477
0.27486233447512576
0.2929862385115593
0.4472576775592066
0.059080311946424435
0.37166860036333715
0.47063545960576725
0.3597516540331262
0.3029081398192488
0.21098057176582954
0.7980879871760201
0.08650185265077248
0.433120952433252
0.16196520146262167
0.18663213045519883
-0.7159871824613724
-0.6671310793915781
-12.813690750742746
1.0694333716417779
1.0397091279147124
1.053042241306739
0.9744618945098795
-11.020882974467355
3.680419318351308
1.0574732319103504
1.0648604540825901
1.1552127266513796
0.7265015557564054
1.0556703387647217
0.9207217710969087
1.0108894123039465
0.9545211914329931
1.0773924673446897
1.0628042301552796
1.148051235335078
1.3172949574847161
1.033133285687363
1.1517831245607941
0.9543606294110585
1.129378689155443
1.0916723236595087
1.0911505788560603
0.8754030035232166
0.905470534633585
0.9786514712165788
0.8512210267498157
1.1208199701198196
0.8183714659086722
1.0518949772438129
1.086143173410438
0.6629575705587436
0.6647351119267935
1.2786231801849777
0.6430227765524159
1.1075371546741892
1.0229774506362654
0.3569935509342964
0.34407878409948045
1.0458840032736973
0.4884359830283792
0.9596810423111577
0.9363988488101267
0.8795042464128359
1.118959693639476
0.8447372595868793
1.041233915893402
0.9445294640350532
1.0617919157176954
1.0219820662566372
1.0661593663190487
0.885276769908643
0.9795302036147437
1.1069934140665396
1.0342437828231972
1.1127826813473456
1.0798428995650613
1.127219362130091
1.1069433142068932
1.0227139895916564
0.9511995788986862
1.1503239521311357
1.097358455244341
1.1577752803856654
1.137749565281155
1.1560779698008605
1.1387626470806214
1.0846651829235034
1.055619834012683
1.1777107355543832
1.1495003015295437
1.1858425340034557
1.177657815083127
1.172881421383599
1.158699983884606
1.1439145748638269
1.1194705662946005
1.1915475693025508
1.1863093816945611
1.1995247284392287
1.2024712597515679
1.1781702754530161
1.1676359259831368
1.1878857505091502
1.173648457231999
1.1938633583178848
1.208887642518435
1.2017195901545785
1.2137973430427893
1.174449810700143
1.1667338869719521
1.2165835495433255
1.2117435355910475
1.1883337736314143
1.2177969262607613
1.1951604930446167
1.2125458927857529
1.1653023809074288
1.159274649812851
1.2311900518189156
1.2348863756258344
1.1761910050548223
1.2147134049733772
1.182047452467625
1.2031844526450435
1.1514882244179447
1.1474263196837533
1.2315989311734903
1.2428245445440202
1.1608473948942308
1.204449478401702
1.1655790437746276
1.18804412710468
1.1369221354841497
1.1334194124206662
1.2234738133744356
1.2390943138178903
1.14419503839583
1.1873616588562155
1.1492730414824912
1.1699745786128242
1.1226121888152631
1.1200709347839797
1.2070590774664172
1.2267658806876152
1.1328930763700165
1.1714030067290255
1.1384117773693672
1.156220170598043
1.113289128867826
1.108086244399734
1.189762549236921
1.2080315397309214
1.1243820333574326
1.1569721626642189
1.1265979176069487
1.1413796536850593
1.1087810226897796
1.1032068191995235
1.173060948974603
1.1906684994163224
1.1145408053131316
1.1396124595646329
1.1146837446551383
1.124973662828529
1.1054532017900403
1.1019093034162046
1.1530504244787934
1.1709064049096036
1.1068946616230495
1.1208144570570722
1.1039814282889138
1.1076113055495456
1.1010913321426736
1.099792811651671
1.130322230570442
1.147919401256059
1.0986932340427908
1.1016193074698286
1.0964092986117937
1.0957054947782
1.3190040583543503
1.3184889231200976
1.1087594165350962
1.124259188128183
1.3116542362258197
1.0909917894029957
1.3094472940126987
1.0894886510234687
0.7542303893459477
0.7592962760434813
1.0919952133213537
1.1038490277618254
0.7824224614473272
1.083981035078986
0.7750944441654233
1.2966116607863118
1.0827841956507507
1.0892952355135916
1.2878257209673185
0.6941593638318699
1.0729015674673428
1.0804906678581008
10.456870178778606
11.047515380505743
1.0698804120590315
22.03253458571427
-1.9765111280939442
-6.77536186323351
-14.805891797445458
1.0533100415926442
-3.7723876722528535
1.0208962162709299
0.9940492375649985
-11.772037385524612
-0.7361258753559661
1.041597500671959
1.0456307429062177
-4.79740864264917
1.011544816992192
1.0243462253044238
0.9623582419160817
1.0020066289342449
1.0494110977829254
1.0470499561409783
1.2293282288808483
0.17401027074510644
0.9761672086571214
1.2297993468161235
0.9694511661553087
1.1834349172961476
1.0338866027687477
1.0579439168184415
0.9421243059855366
0.9193135916800826
0.955769771806655
0.8996504063556445
1.089193023265598
0.8190899066737485
0.9658523676138729
1.0372531560741531
0.5854248391481421
0.5815343092580585
1.2555124469073025
0.46949869422935486
0.9105519661436128
0.3946413300575147
1.0972671316939382
0.9410303038594519
0.22481101436294737
0.26017665959983866
0.4048351505556851
0.11237536043924302
0.04358507879247897
0.267035924762135
0.8673214525529699
1.2147929529275334
0.35856139470126447
0.39613968445312864
-0.0638878293108224
0.45129057129260064
0.09077309953447567
0.3825006541682427
0.3253086158306062
0.8952678259311924
0.43624993980028526
0.4981813275318411
0.05288425638809577
0.3492090612327203
0.2957516408981605
0.30034889110901797
-0.22676062391760543
0.20032466437020297
0.37706621016908887
0.39531717161229596
0.21132037744908
0.32166144158945253
0.18787624643278755
0.2936200603623026
0.27199514451657736
0.07678152765995654
0.4195014160335004
0.4260460144894344
0.16308743122098093
0.42310268419814323
0.0946950523867088
0.18015863466601276
0.39289558107301437
0.36125293168122163
0.11169672666478309
0.2565837267416025
0.36960851046960674
0.1554717012725876
0.4099283074446087
0.4576204899889706
0.38923173064997824
0.3042861594274262
0.833839406666291
0.09772159698260464
0.37281823804944836
0.394528745246248
0.33372626661077315
1.1292188687838296
0.2495101724011079
0.822207109992604
0.04349475822855298
0.3410950547532055
0.3449897275669782
0.2834437379672967
1.139177027792403
0.9851676179667859
0.20047445428910796
0.818448021363382
-0.006094433990289125
0.31427883655933236
0.29082752325921785
0.22932738236453315
1.1600361349458068
0.9996530861354294
0.15583636156188957
0.8207662152005062
-0.05106507761302302
0.2934915054759722
0.23786772443459162
0.1662899978525228
1.1870469807726014
1.0221477157138525
0.11123121283908399
0.8288204698008217
-0.09504387831871564
0.2779887955540268
0.17692603982184618
0.09666111224244125
1.2208763248441965
1.0518281260914424
0.06626069079665922
0.8421981661937079
-0.13380950711066014
0.2690952944136461
0.11940354044803828
0.023793798315425642
1.2601726577589467
1.0880191421626406
0.029294660094634578
0.8594429893704343
-0.16077398277999924
0.2664695449714943
0.07078498113447204
-0.03917633641944362
1.3024998867131095
1.1301266833215604
-0.004898625605546214
0.8813924767308221
-0.18253547683333426
0.27651209775154056
0.0199981789370169
-0.09438685719759866
1.348622583815755
1.1767565493991023
-0.03289844239216493
0.9117678695059561
-0.18056814710890423
0.305050590204342
-0.02744151097682239
-0.15218174087542863
1.392806944477008
1.224781279807525
-0.0475252773199138
0.9411961632271939
-0.14043292960928483
0.3626697736245767
-0.07633285702637407
-0.20391879540002195
1.4308931769083586
1.2757866788565584
-0.032527462113144605
0.9683313129120119
-0.07771041057827881
0.4200456612130163
-0.1302583220480531
-0.26697136925065357
1.4331543967462252
1.3171898711399548
-0.02404203327868864
0.9800839090425709
-0.042550549722759595
0.4638193208072049
-0.18958767042264996
-0.3409869076571487
1.4321497984203204
1.336934634424979
-0.040141701664597525
0.9957775274471078
-0.05659050534227421
0.4729588532394666
-0.24641202468807324
-0.41436650989019663
1.452164331776646
1.3722720145144924
-0.08541016754652023
1.0041680487101017
-0.12485876195139138
0.4351700957234896
-0.31004196627968655
-0.4874926270989162
1.4729856927420455
1.3981633016009487
-0.15262461489330453
0.9995367693885515
-0.22565576436201912
0.36647676224495596
-0.341712212202269
-0.5385781579935222
1.5221060987533286
1.4265570691202107
-0.21714905513362606
0.9768621796201706
-0.3135537746386583
0.2883249335081634
-0.35141413532841614
-0.5490084418657737
1.533021674894762
1.4452055868843245
-0.24784274528990638
0.9360489986936883
-0.36549289475003877
0.2165201410867342
-0.3298667372685188
-0.5298428468120608
1.507725562028102
1.4161609921171687
-0.24562816792109055
0.8624522304162371
-0.4231299248961612
0.10293743760439344
-0.27125254265991844
-0.47314126146747904
1.4385320951248546
1.3642765691297654
-0.2647162434990353
0.9417820325686468
-0.4430955698035666
0.23733534376356083
-0.1910176403023014
-0.3750556964382552
1.5294189064902821
1.266654176234646
-0.21681337549651647
0.45343858600875747
-0.07848857628673739
-0.08866752834859086
-0.11795665465810053
-0.2705402457684168
1.0716922202545405
1.4432258519309789
0.11490561152269849
0.10957918141550192
0.2193959663107029
0.22424848826535984
-0.0649939467164196
-0.15953141368743953
0.47782999559415074
0.8978369200758407
0.09466259297648862
0.08649315293308786
0.22166301972171631
0.2086410577236586
-0.030855871238262313
-0.0860220561431661
0.45028884358871607
0.956294993099637
0.1348437468711452
0.08721571062230443
0.2615712739483538
0.22696519969757067
0.013082144281703022
-0.025617047082476804
0.4242847340219165
0.909505771778899
0.18119023598862843
0.09559517005975517
0.30631532760325497
0.2553263359251648
0.0610088389331641
0.01962827430344724
0.408785089237247
0.8772241422746747
0.23533322081309294
0.11165570831877321
0.3683073523266253
0.29561883151039586
0.11187682370772647
0.06267753344242419
0.39964610249339205
0.8565066492772755
0.2950779533941897
0.11150562700531919
0.16530669954973493
0.11507970137680416
0.3724902366800311
0.8445938353597267
0.1558277358531742
0.7726365235272432
1.2096870064759848
0.9337916196076005
1.0838485520690497
1.193297124361908
0.9119109176759466
0.9164682872689738
0.9909517717262427
0.9787080664524925
0.9031346184483123
0.9703699385078032
0.971303388732353
1.151843341864132
1.0911413845200884
0.9895982271773647
1.0998082273048566
1.073838517966313
1.1165096266682064
1.05797795983944
0.9530571666353884
1.0274851280442254
1.163144345104055
1.115179788783748
1.1842500185859062
1.1622551716041425
1.1805314525232
1.1425635768721198
1.1166102927948849
1.0387279614354736
1.2295662133506864
1.1986018857646528
1.248867259181319
1.239897778577049
1.2326559154950845
1.2047268281494496
1.19888910016053
1.1639728900111568
1.272894920252924
1.266375856029784
1.2905336571215709
1.2929840735027007
1.2639733410018181
1.2430353820746114
1.273124423458806
1.2469335604019482
1.2962279564897699
1.311658456820754
1.3102398755478704
1.3232199594977245
1.2775297929648959
1.262913914345591
1.3238306731594696
1.3119048572704384
1.3009576203600952
1.3343046047950924
1.310841035882077
1.33120793636722
1.2754022653068644
1.2659863569697656
1.3512316097796302
1.3523191808209778
1.2899626520869418
1.3357356201877777
1.2961826210387966
1.3215886886544894
1.2614280874886457
1.25675111623055
1.356800497809585
1.369199818973565
1.2687761595262725
1.3207251316891362
1.271120509914264
1.297663414461435
1.2389439649390317
1.2378158618532598
1.3434429903842866
1.365371424971447
1.2401458371087144
1.2925248437996795
1.2412439773891186
1.2670800795329125
1.2122630606521791
1.213405538870488
1.3162033212077042
1.3440597505646101
1.2140557754335282
1.2626695478900092
1.2141468840076888
1.2369245543203757
1.188453623563115
1.18775904906217
1.2844772835552902
1.3125662926062185
1.1885304827468195
1.2302333673238166
1.1842405658263353
1.2031657800906452
1.1681511863587715
1.1681654357492273
1.2510921183827879
1.2795910410446283
1.1608513788208685
1.1944506000689046
1.1544785993078475
1.1691526062915736
1.1458481450492535
1.1488580356666718
1.212331643439826
1.2419055745205376
1.1352180821167437
1.1587863675605623
1.1278136096717635
1.1367078881318562
1.1238536959050505
1.1281109793245394
1.1730650264011162
1.2013123085030486
1.1141221230812497
1.1270623612718382
1.1084023170515356
1.1124482767820314
1.107286980509846
1.1096140808886665
1.138492995717788
1.1624171814183595
1.100904759038658
1.1060327135160097
1.0967538089975246
1.0978358037443807
1.1001303412173589
1.1007927566588322
1.1124846293509167
1.1303308270628878
1.0931727556466515
1.0923686745256596
1.0945319920080074
1.0926459161401594
1.0907165201041256
1.0935231556336995
1.0951918440495487
1.1071108891031767
12.911703780100435
1.090711067874807
13.133062370259983
1.3139557339022032
24.445252620831674
12.625624597196722
1.0864705610312546
1.091228578820496
1.3023424309577933
0.6809209946097994
1.0747878359700351
1.0821606320708925
10.400048625804454
11.015100453285402
1.0684182271029892
22.116395045209686
0.3019153093969688
0.26584223970767784
0.2725890130993812
0.3234788041518041
0.3823031504821322
0.23811523156410394
0.3218439409427164
0.30805182502206635
0.3850337610089754
0.23761049912820686
0.3987545077024808
0.3710630746139809
0.3908789044439696
0.16695401855052897
0.2280158122562514
-0.07289100962409831
0.2964426344217862
0.2131108225639858
-0.12163214482246734
0.17335816439574347
0.04413822232270298
0.27772441077818444
0.25533821529751727
0.7898312256333484
0.26939053993261236
0.35883185984397736
0.894806037577932
0.25560445380265295
0.7492723381728272
1.1593416242205508
1.0372690504987956
0.9128453262106877
0.38405859319999386
0.1153767879345932
1.0536446358343268
1.3012158640468723
0.9431828837916633
0.889038167136809
0.8691861865250883
0.9394651941583421
1.1045393716851946
0.8334117934194933
0.9653257081744461
0.883435878862101
0.9551511344569906
1.0380131992202843
1.0431613574385397
1.0557444145685797
0.9437542237142068
1.0191457636758359
1.059644030250104
1.0373835662257984
1.0896588491810404
1.1078470214669336
1.1277742668657917
1.1333793820216447
1.101471838613298
1.0435774361280132
1.1173999333181457
1.0869281574496115
1.1684413569790664
1.1671881736331506
1.1969787558781433
1.1901204573763744
1.1822582331353992
1.153404132454382
1.1620736391491486
1.137817759388855
1.2277353723953628
1.2046101234037927
1.2408622888367693
1.224595338346968
1.2464577889298039
1.229518048568917
1.1886500909849131
1.1690458904734928
1.2633661524550088
1.2239989201808867
1.264950818457558
1.241850536673237
1.2866953487161157
1.282913901632317
1.2009527449838182
1.1855891307310202
1.283426954543791
1.2338063703901387
1.2777444081737852
1.2512241058044535
1.3089817607298297
1.3138348209047033
1.205624672737816
1.190622663823846
1.291742804896507
1.2367630970829477
1.2749993121008498
1.2465399066566223
1.318351059513136
1.3299074689764527
1.2067368953447368
1.19301620641392
1.2791830863604643
1.2241447055848675
1.2530723020608205
1.2264933267294513
1.3068280200937457
1.3292525004507605
1.19673573077367
1.1891047301072137
1.2498662262562568
1.2008616818752573
1.2194268719714494
1.1970013029218192
1.2758977968988274
1.3067488064366728
1.1752972187353117
1.173519888778308
1.2123309684732155
1.171002783621297
1.1854843806720148
1.1665817648697265
1.2369130857409192
1.2700405598817237
1.1507453766797973
1.1511794328403737
1.1798634151540708
1.1476939413064438
1.1583022625343133
1.1450354044889746
1.200718778449528
1.2309218612351756
1.1318893015170766
1.1305197181388595
1.1521086106352452
1.1311601633506143
1.134707564491097
1.1270259752518048
1.168187779977064
1.195236795171589
1.120062137979068
1.118132739328061
1.1278329036272319
1.1172395898614436
1.1157212486684922
1.1128095241419964
1.139699450205964
1.1626532804116478
1.1101360908838205
1.1088244509026353
1.1086644031953372
1.1065856824062954
1.1010302815136348
1.1018632852510888
1.1154487295353634
1.1343721215872509
1.1052131563784502
1.104333499136528
1.0936193903447977
1.1006607465202571
1.089239731075594
1.095448083513599
1.0966983861112962
1.1108936036201595
1.102124071473619
1.1019540841766056
1.0816170912606584
1.0942993230163862
1.084795703419478
1.0912695827372008
1.0825213335878883
1.093222969169322
1.3005868010425217
1.3031988864930963
1.0810718658869314
13.740770293574073
1.2813669848346638
13.934591533204083
1.0753160445700831
1.0799441244298593
13.262970875193396
0.8197576423826592
1.2681480764528699
0.6509917160244628
1.0655346148974076
1.0729977019623533
10.395562139528685
11.007494028295861
1.0603101432361757
22.244609723756916
3.3616601660265606
-0.035127405631222075
-1.8797206765309973
3.8996393833435423
0.24292894042652924
0.17089371168625325
-0.08902915957297693
5.717535125267317
-1.2592902384742926
-6.7020142188789125
1.0326893843013978
1.375063476300351
0.7789393748459408
0.1166397324039382
0.7993614516374005
0.39698468045462804
0.7358727324375982
1.9457228112016862
0.3966278470027043
0.9807193989006577
0.7488550326393532
0.33153165699378434
0.6324593818735283
0.6175127774107319
0.8061770063580274
0.8136167829477321
0.026732717999588762
0.37217385605919856
0.6010755828693549
0.5143392093666719
0.5241442078798974
0.45235443884001086
0.6666067781760963
0.7553125508989439
0.5408024312350582
0.3391770602849226
0.5724041674981882
0.4053733626458537
0.5243273887716342
0.42908635295918623
0.5235979949201172
0.5408692306085677
0.4061744306309765
0.47961872869351996
-12.191085314887946
-2.0278062803207515
-2.586087518237522
-9.111802294735673
1.0524285621061313
1.0418535193518252
1.0428053416264353
-9.105517072423943
0.6113361873491383
1.055231506531885
1.1724203696916617
1.0285322167922402
1.05251913792026
1.0290355297978395
1.0520706286512493
0.9695715585203597
0.9891780833916745
1.0677442299597744
1.060833378091703
1.000773656067543
1.0761870889102276
1.0125015590056639
1.0648798929949386
0.9112177223894445
0.8805189378478606
1.0945107313155176
1.0856193630960536
0.9384192358138734
1.0813436585894127
0.9497458233139204
1.040291912100185
0.9247942296144969
0.9093206191281888
1.1055224172892828
1.1073822941000988
0.8780163469713058
1.0602131823959549
0.8865140699707383
0.9781648166091229
1.1063827413225984
1.1644872114658362
1.1075779217707573
1.1118354101748573
1.0987508450391983
0.9987277211248217
1.0725700409749204
0.8808961704221592
0.8298457768124214
0.8459753960952541
1.0792847455982824
1.106086580457386
0.7997372766114345
0.9058179842123977
0.7491361646673502
1.0468907428210745
0.607229366588712
0.6111570627254211
1.0160062440675168
1.0716414547507391
0.5563632097954011
1.16282587910099
0.5436588736386494
0.8523669647905139
0.23764541350656143
0.23791045835578795
1.0003760963568678
0.9946292199320713
0.12563844710489142
0.14510252730070533
0.2154074597883248
0.1824909334813195
0.11517208593135968
0.06279147942854046
0.2869293216275204
0.14298914386085754
0.014829910569752539
-0.08486214703798059
0.2782613707121702
0.23094991960725628
-0.03361962959220319
0.13824440760859955
0.08751955672312002
0.19567139356917915
0.7140809902413102
0.714091303196795
1.015329697813991
1.0626514618743896
0.8353208141012821
0.3510516544101864
0.23928370886080932
-0.0714759709676288
0.9523775398786143
0.9642313314580749
0.9467264167233111
0.911258444242373
1.0052370280969516
1.1894290098923002
1.1409782519625773
0.7645907880429061
1.0689563713642853
1.0243613687347144
1.1193413487526753
1.1102143186040423
1.0915339755760343
1.0221635091533974
0.9943843026211336
1.0580282986332945
1.183729020214022
1.170675507259265
1.2241655536968392
1.2202390708907147
1.1948432647543998
1.1530331975048018
1.1848414979470963
1.0944032431782929
1.271722108681792
1.2759560121239315
1.3059272231373167
1.3140876093855802
1.266470924179945
1.2300286137353698
1.288544113502907
1.2469931629575215
1.329406329610022
1.3557066215297087
1.3584002256378869
1.37654013130931
1.311930215037201