# vtk DataFile Version 1.0
Tissue data
ASCII

DATASET POLYDATA
POINTS 1593 float
0.0620778 -0.605321 0.824726
0.0476973 0.479477 0.879676
0.20573 -0.750124 0.71146
0.183046 -0.730911 0.731008
0.160933 -0.711414 0.749167
0.139955 -0.691279 0.766215
0.119494 -0.670635 0.782152
0.100637 -0.64973 0.797049
0.0815039 -0.628139 0.811092
0.0939044 -0.594184 0.827454
0.12608 -0.583888 0.8287289999999999
0.15793 -0.572534 0.829522
0.190662 -0.560128 0.829655
0.224182 -0.546727 0.829031
0.258401 -0.532352 0.827589
0.293208 -0.517005 0.825272
0.328476 -0.500682 0.822039
0.364056 -0.483378 0.817854
0.399793 -0.4651 0.812682
0.435516 -0.44587 0.806497
0.471039 -0.425721 0.7992859999999999
0.506181 -0.40471 0.791037
0.538626 -0.384316 0.782364
0.5698 -0.363811 0.772998
0.600245 -0.342825 0.76281
0.630555 -0.321019 0.751502
0.661675 -0.297368 0.738619
0.69175 -0.273649 0.724653
0.720129 -0.249699 0.71027
0.747583 -0.226134 0.694386
-0.224602 0.750698 0.709065
-0.197394 0.731571 0.730046
-0.170556 0.711638 0.74971
-0.144699 0.690697 0.768188
-0.11935 0.66874 0.7855449999999999
-0.0957129 0.646012 0.801858
-0.072693 0.62376 0.816377
-0.0516772 0.600192 0.829858
-0.0306782 0.576623 0.842068
-0.0107725 0.552866 0.853028
0.0084557 0.529274 0.862721
0.0277517 0.504977 0.871574
0.062524 -0.574863 0.839512
0.063311 -0.544813 0.852723
0.0640575 -0.514603 0.864774
0.0647742 -0.483009 0.87615
0.0654766 -0.450038 0.886771
0.0661238 -0.41571 0.896569
0.066661 -0.380092 0.905473
0.0670531 -0.34329 0.913425
0.0672953 -0.305436 0.920384
0.067412 -0.26666 0.926333
0.0674424 -0.227084 0.931281
0.0674238 -0.186832 0.935253
0.0673988 -0.146024 0.938279
0.0674143 -0.10753 0.9403009999999999
0.0675393 -0.0696649 0.941636
0.0678623 -0.0317158 0.942396
0.0679714 0.0069848 0.942595
0.0658385 0.0480433 0.942499
0.0638747 0.088413 0.941605
0.0620945 0.128062 0.939989
0.0604582 0.166925 0.937626
0.0596794 0.205242 0.934373
0.0593109 0.24277 0.930257
0.0578583 0.279586 0.925474
0.0563188 0.315278 0.919905
0.0547322 0.349749 0.9135719999999999
0.0530793 0.382963 0.906502
0.0513594 0.414908 0.8987269999999999
0.0495647 0.446898 0.889889
0.078447 0.470713 0.880754
0.109407 0.461043 0.880669
0.141335 0.450765 0.880115
0.174044 0.439698 0.878748
0.207555 0.42786 0.876612
0.241812 0.415229 0.8736619999999999
0.27673 0.40178 0.869864
0.312192 0.387498 0.865176
0.348056 0.372379 0.859553
0.384162 0.356443 0.852945
0.420343 0.339728 0.845306
0.456423 0.32229 0.836591
0.492218 0.304192 0.826768
0.525391 0.286717 0.816525
0.557335 0.269213 0.805542
0.588602 0.251358 0.793633
0.619693 0.232803 0.780538
0.65175 0.212777 0.765571
0.682504 0.192625 0.749668
0.711752 0.172402 0.732985
0.739399 0.152191 0.715801
0.766162 0.133801 0.696835
0.0318087 -0.596687 0.830577
0.00241855 -0.587497 0.83562
-0.0266296 -0.577603 0.839929
-0.0565485 -0.566759 0.843544
-0.0872805 -0.555224 0.84634
-0.119778 -0.542042 0.848119
-0.154612 -0.527734 0.84934
-0.190201 -0.512567 0.849519
-0.226417 -0.496455 0.848753
-0.263018 -0.479344 0.84704
-0.299808 -0.461264 0.844367
-0.336611 -0.442268 0.840718
-0.373243 -0.42242 0.836083
-0.407278 -0.403112 0.830845
-0.44017 -0.383671 0.8249
-0.472528 -0.363766 0.818149
-0.504907 -0.343011 0.810428
-0.538514 -0.32048 0.801287
-0.571045 -0.29768 0.791221
-0.602376 -0.27473 0.780285
-0.632431 -0.251761 0.768518
-0.661089 -0.228874 0.75602
-0.688338 -0.206199 0.742834
-0.71396 -0.183772 0.729175
-0.737842 -0.161536 0.715371
-0.760987 -0.140735 0.700131
-0.103778 -0.782906 0.702634
-0.0779715 -0.764727 0.720538
-0.0555474 -0.743804 0.738549
-0.0339151 -0.722088 0.755649
-0.0136345 -0.699647 0.771676
0.00588844 -0.676916 0.786442
0.0246013 -0.654087 0.7999229999999999
0.0434153 -0.630321 0.812614
0.267002 0.739919 0.706548
0.24429 0.718629 0.728895
0.222024 0.696557 0.749845
0.200264 0.673846 0.769374
0.179169 0.650496 0.787578
0.158599 0.626677 0.804463
0.138795 0.602535 0.820025
0.119113 0.578254 0.83424
0.100874 0.554112 0.847212
0.0829313 0.530439 0.85871
0.064938 0.506171 0.8695039999999999
0.0180905 0.468131 0.884383
-0.0107449 0.456786 0.887994
-0.0392455 0.445272 0.890685
-0.0683399 0.432972 0.892681
-0.0993944 0.419349 0.893621
-0.132779 0.406746 0.893262
-0.167015 0.392325 0.892342
-0.201986 0.376838 0.890621
-0.237501 0.360398 0.888038
-0.273386 0.343055 0.884568
-0.309464 0.324857 0.880186
-0.345558 0.305875 0.874865
-0.381495 0.286194 0.868576
-0.414922 0.267213 0.861783
-0.447261 0.248258 0.854294
-0.479098 0.229008 0.8459639999999999
-0.510961 0.209107 0.836584
-0.544012 0.187704 0.8256209999999999
-0.576006 0.166242 0.813681
-0.606817 0.144819 0.800817
-0.636331 0.12352 0.787103
-0.664459 0.102418 0.772623
-0.691168 0.0815878 0.757455
-0.716544 0.0612022 0.741599
-0.740389 0.0413171 0.725284
-0.762618 0.0218181 0.7087519999999999
-0.783564 0.00290786 0.6916059999999999
-0.770337 0.0930293 0.697865
-0.767131 0.0568742 0.703542
-0.749175 0.226733 0.693053
-0.749628 0.187296 0.701195
-0.748607 0.149255 0.708523
-0.746257 0.112662 0.7153039999999999
-0.744056 0.0767702 0.720314
-0.719072 0.290208 0.700022
-0.721217 0.249909 0.7096089999999999
-0.722749 0.210507 0.71736
-0.722652 0.171893 0.724666
-0.721293 0.134249 0.73125
-0.719271 0.0972901 0.736852
-0.684614 0.354706 0.704773
-0.688616 0.313842 0.7158
-0.692089 0.273603 0.724759
-0.694085 0.233645 0.733097
-0.695021 0.194513 0.7403609999999999
-0.694653 0.156157 0.746891
-0.693328 0.118515 0.752574
-0.645849 0.419629 0.706897
-0.651798 0.378685 0.719397
-0.657221 0.338006 0.729766
-0.661119 0.297241 0.739476
-0.66408 0.256989 0.747897
-0.665779 0.217282 0.755393
-0.666366 0.178316 0.761948
-0.665881 0.140041 0.767679
-0.603314 0.483648 0.706056
-0.611034 0.443692 0.719919
-0.61837 0.403027 0.7318749999999999
-0.624131 0.361922 0.743154
-0.628979 0.321024 0.753033
-0.632596 0.280358 0.761848
-0.635153 0.240222 0.769532
-0.636573 0.200692 0.77626
-0.636945 0.161809 0.782086
-0.560431 0.541857 0.7025899999999999
-0.568766 0.504881 0.717337
-0.57656 0.467526 0.730397
-0.583786 0.426792 0.743494
-0.590273 0.385751 0.755122
-0.595615 0.344621 0.765553
-0.599976 0.303733 0.774691
-0.603245 0.263217 0.782704
-0.60546 0.223226 0.7896569999999999
-0.606624 0.183773 0.79567
-0.524292 0.562861 0.7121379999999999
-0.533972 0.525985 0.726662
-0.542178 0.488355 0.740501
-0.549435 0.449607 0.753485
-0.55586 0.408847 0.765844
-0.561617 0.367853 0.776749
-0.566459 0.326876 0.786361
-0.570352 0.286162 0.794739
-0.573222 0.245822 0.802021
-0.57508 0.205871 0.80831
-0.476888 0.618425 0.704296
-0.487814 0.582323 0.720847
-0.498189 0.545949 0.735462
-0.507238 0.50868 0.749441
-0.514733 0.470167 0.762908
-0.521392 0.430472 0.775425
-0.527348 0.390074 0.786732
-0.532553 0.349426 0.796739
-0.53687 0.308807 0.805524
-0.540213 0.268372 0.813197
-0.542527 0.228061 0.819891
-0.436726 0.638809 0.711415
-0.448631 0.60286 0.728127
-0.45935 0.56581 0.744011
-0.469307 0.528126 0.758561
-0.478081 0.48965 0.772105
-0.485794 0.450445 0.784593
-0.492577 0.410706 0.795919
-0.498431 0.370658 0.806067
-0.503313 0.330552 0.815059
-0.507053 0.290522 0.823034
-0.509436 0.250325 0.830217
-0.396481 0.65721 0.717559
-0.408538 0.621812 0.73485
-0.419693 0.585206 0.751217
-0.430054 0.547505 0.766471
-0.439697 0.509033 0.780422
-0.448459 0.469909 0.793137
-0.456327 0.430321 0.804603
-0.463306 0.390503 0.814812
-0.469341 0.3507 0.823806
-0.47425 0.3112 0.8317019999999999
-0.477262 0.270462 0.83923
-0.345657 0.706948 0.703178
-0.356424 0.673895 0.722758
-0.36828 0.63935 0.740482
-0.379651 0.603403 0.757309
-0.390407 0.566212 0.773016
-0.400527 0.528021 0.787486
-0.409987 0.489095 0.800617
-0.41871 0.449631 0.812417
-0.426668 0.409838 0.822893
-0.433867 0.369934 0.832067
-0.440318 0.330125 0.839988
-0.444832 0.289722 0.847346
-0.305157 0.722855 0.706327
-0.316738 0.690221 0.725938
-0.328085 0.655975 0.744725
-0.339532 0.620562 0.762131
-0.350561 0.583944 0.7783289999999999
-0.361066 0.546263 0.793269
-0.371002 0.507722 0.806875
-0.380335 0.468545 0.819106
-0.389022 0.428927 0.829969
-0.397052 0.389041 0.839496
-0.404461 0.348994 0.847739
-0.411333 0.308606 0.854804
-0.26492 0.737313 0.708286
-0.276824 0.705055 0.728472
-0.288336 0.671558 0.747624
-0.299655 0.636687 0.765665
-0.31081 0.60066 0.782397
-0.321582 0.563562 0.797828
-0.331883 0.525547 0.8119109999999999
-0.341667 0.486805 0.82461
-0.3509 0.447529 0.835915
-0.359559 0.40788 0.8458559999999999
-0.367632 0.367947 0.854496
-0.375097 0.327614 0.861959
-0.23704 0.718798 0.729849
-0.24878 0.685892 0.749483
-0.260212 0.651729 0.767971
-0.271406 0.616333 0.785243
-0.282337 0.579855 0.801187
-0.292894 0.542434 0.815767
-0.30302 0.50423 0.8289489999999999
-0.312674 0.465418 0.840723
-0.321824 0.426156 0.851111
-0.330443 0.386542 0.860171
-0.338454 0.346544 0.868018
-0.209529 0.699205 0.7501869999999999
-0.221195 0.66567 0.769163
-0.232512 0.630951 0.786922
-0.243549 0.59512 0.803387
-0.25427 0.558327 0.81848
-0.264637 0.520717 0.832164
-0.274609 0.48245 0.844426
-0.284144 0.443674 0.855284
-0.293209 0.404496 0.864787
-0.301723 0.364933 0.873034
-0.18268 0.678637 0.76922
-0.194204 0.644537 0.7875
-0.205384 0.609357 0.804481
-0.216208 0.573213 0.820095
-0.226731 0.536224 0.834297
-0.236926 0.498543 0.847068
-0.246746 0.46032 0.858413
-0.256166 0.421653 0.868381
-0.265102 0.382582 0.877055
-0.156536 0.657168 0.787002
-0.167956 0.622572 0.804531
-0.178849 0.587099 0.820663
-0.189481 0.550755 0.835388
-0.199825 0.513662 0.8486899999999999
-0.209821 0.476026 0.860544
-0.2195 0.437926 0.870993
-0.22878 0.399388 0.880119
-0.131408 0.634815 0.803599
-0.142249 0.599981 0.820265
-0.152993 0.564349 0.835479
-0.16351 0.527836 0.849318
-0.173535 0.490762 0.861715
-0.18336 0.453261 0.872665
-0.192915 0.415293 0.88226
-0.106468 0.612072 0.81879
-0.117159 0.57695 0.834598
-0.128168 0.541123 0.848992
-0.138114 0.504625 0.861935
-0.14786 0.467622 0.873441
-0.157621 0.430252 0.883517
-0.0835717 0.588383 0.833078
-0.0937505 0.553045 0.848002
-0.103644 0.517772 0.86112
-0.113265 0.481272 0.873177
[...]
CELL_DATA 3055
SCALARS gaussian_curvature float 1
LOOKUP_TABLE default
1.0540748143315248
1.0835437163155182
1.2029803816455982
1.2381224831296485
1.1049486027216298
0.7799903036868532
1.0863966248140642
0.8271412176247797
1.1040786367679973
0.9398955974283453
0.7745663426148626
0.7855660690422813
1.1003864147890141
1.102167101046152
1.2275158169227705
1.0046544729262585
1.0026840410202391
1.0401259795655025
1.134297696307256
1.0311506580133387
1.060959514222274
0.9174271953477648
1.026974008156582
0.8990607281137206
1.2110542735880618
1.0826362187587746
0.9896226265158088
0.9836339169262827
0.9331151902947394
1.1735012372790885
0.9430230178547798
0.8860092256481642
0.9885741650296118
1.1812381977644553
1.0193665965082035
0.8430232915620903
1.0473249358303098
0.995832155470203
0.9964288074204355
0.9681956659934507
-0.9518529753727631
-0.5812080111789527
11.837663635873978
0.8534566262302381
1.252008632229602
0.8614794961177185
0.8893865379232716
13.642119390896347
30.20070813111273
0.8609289514378533
0.8600751048572217
1.1892895735886493
0.7540459880058931
0.8536900866526174
0.825438335046452
0.8690600755588602
0.8129012821471416
0.8457690743759141
0.8610308090486303
0.8849644204145277
0.8861935646503948
0.8544499191260435
0.8915215302983752
0.7882371928869156
0.8814675974709658
0.8246417838891785
0.8313309280452919
0.8572278072173659
0.838133644434208
0.7644830220070054
0.8487227960784303
0.8253283203424588
0.8163376898298336
0.8253161811034719
0.8192622167465173
1.0936627033859367
1.092113781697463
0.8045772024828546
1.072523991113447
0.7411691080641909
0.8227533850202617
1.0507773802539941
1.0395309862778872
0.7583091621341255
1.1302330974017363
0.7950200906864673
0.8338133208764857
0.8595245230014087
0.680629957318488
0.8334474392921086
0.7934323768593574
0.8262423576249409
0.7781462966611824
0.7852450753018427
0.7995124950730681
0.845165868716127
0.7640579007246154
0.7673242653072379
0.7748440236744689
0.7585051255649929
0.7589261052915637
0.7768567671546367
0.793758916722292
0.7642144953316321
0.7935390580501922
0.7549216128900385
0.7458485634090835
0.745277154846294
0.7357831256387681
0.7727688252133105
0.7858848397356641
0.7370315579766886
0.7394795715163323
0.7508300535701025
0.726607023949447
0.7386403232583689
0.7239113228452394
0.7715126514886002
0.7838069650880637
0.7113261884166964
0.7116852846736226
0.7485310823368445
0.7141076179053708
0.7362840447005801
0.7165895806822359
0.7741974263101519
0.784989265150174
0.6971125058182461
0.691635375225364
0.752277934806038
0.7088856631043524
0.7406254832169225
0.7169276755335812
0.7793766783808975
0.789049132248747
0.6894827146324032
0.6801915201231621
0.758970446393936
0.7096841483713136
0.7468771882603662
0.7212886979210852
0.7860874949475722
0.7948412753454184
0.6880600863349444
0.6759006650252627
0.7662777803837773
0.7138350758855294
0.7552063093209868
0.7283520951620202
0.7939412258315635
0.8016576822617888
0.6907124051806341
0.6765419651798207
0.7756478173940516
0.7212853878794641
0.7659209822062574
0.7384127668506365
0.8020128226453674
0.8092347600200888
0.6981933119792496
0.6821373485569102
0.7864250031924276
0.7324192892243968
0.7744038985732369
0.747906399960827
0.8109995282490832
0.8168605125142288
0.7085269633196332
0.6914283650456583
0.7881262986189151
0.740807663761592
0.7738491750760426
0.7530280388311292
0.8152528683626445
0.8261049933736218
0.7207787293937659
0.7039851396882371
0.788131771121163
0.7474374461150641
0.7803665619554551
0.7604933731942695
0.8116155372921576
0.8244595109907664
0.7296133900227957
0.7151750483710347
0.7972598557739649
0.7621297475179643
0.7975948178890542
0.7823378983942392
0.8112844709433598
0.8178749432958445
0.7477720102946963
0.7283115798787332
0.8103065839049575
0.7901758865017122
0.8155563468324704
0.81068256892404
0.796616574447258
0.7979294236007497
0.7750360686390702
0.7528403433083293
0.8014350383116484
0.8209854679038402
0.8086034073869663
0.8330276148875884
1.2119163055222106
1.2123476045853332
0.8075208817835218
0.7820781649410795
1.2097298326340686
0.8414758422152702
1.217169471115926
0.8244912731965057
0.9142574995230505
0.9236123414865105
0.8344080409292496
0.8124952274812491
0.9209088037228821
0.8314742642644319
0.8971660120637381
1.2004096705247083
0.8522151076504024
0.8381643152964555
1.2275100938411616
0.8490740781421121
0.8633242779278609
0.8569646979973784
-13.192999842068136
-12.812131437224265
0.865756667072684
-23.10149102964148
-2.892413388830728
-20.200914023192627
-19.295694151302598
0.8761498682491514
-16.414670217347883
0.8822967819339482
0.8999773306988126
-15.524633838194209
-30.999252511529335
0.8785539286629707
0.8810509846914779
-10.00289652645229
0.8735545277585108
0.8237186385059747
0.8838020387881513
0.8162856007707511
0.8611932385499355
0.8723395531391922
0.8472202813338414
7.335252664422274
0.8657216205335854
0.8558617071093109
0.7979761528219329
0.8556326774150589
0.8394236770738379
0.8451428061198287
0.8284658495121251
0.8123913860014318
0.7796006716682002
0.8386761681971833
0.8135592393235669
0.8149782112594242
0.8324263784550266
0.8245039161490121
1.0711977858564596
1.0607584374771495
0.774250569401238
1.0681630838861063
0.9312056520403686
1.2236991945893798
0.7479939212992162
0.8401282980083715
1.079085219584924
1.0584219646175184
0.9472537493020146
1.241964652044119
1.1117116980516795
1.113929058244773
0.6818624593624062
0.6395577139987384
1.154933027889439
1.1475897061335172
1.1455884286170606
1.0311607317706846
1.1554328682114838
1.0387878111720144
1.0483037874529164
0.7490357669479268
1.052719345596869
1.048456047916277
1.1288608689161936
1.0522270490549768
1.002184577108711
1.0421958142869638
1.2540615520147225
1.1833489101458685
1.0682506565520962
1.0763700324953183
1.013054748349007
1.0499278078852041
1.0281564635341451
1.0250182858920893
0.9610171488876813
1.075347660745914
1.0149539633515487
1.0232455772504276
1.021220852030796
0.967563947757197
1.028448355757077
0.9833463677991001
1.10909925684711
1.131579750448347
0.9976676015571904
1.0393392164561879
1.0928849585117308
1.2131451409696044
1.0790563376266007
0.9987215966009066
1.0356500812431713
1.06802059603587
0.7904506104618518
1.1904780592452748
1.0469968770142606
0.9687696564252724
1.0197308394481825
0.6282696555334872
1.0351700136336235
0.7454101372439675
1.1557977567358029
1.0095190625771613
0.9266277698444774
0.9826848758455311
0.5795479600256839
0.7189537448676124
0.9907894593852407
0.6968393888457066
1.111754057959921
0.9640826815790287
0.8817962245928448
0.9382622781542609
0.5294917281174939
0.676309224630665
0.9397938710900122
0.6462112396765763
1.057091048622238
0.9111797935896945
0.8300191946110326
0.8929861466885456
0.47815174334068083
0.6286755245149205
0.8806071251634637
0.5911692399343982
0.9938673012927655
0.8503406710962433
0.7733689140101181
0.8400781609899127
0.4271551527868668
0.5791062101062676
0.8165966093473157
0.5349667701559755
0.9226633147171933
0.7845601057223751
0.713176494885116
0.78320897567722
0.37796462470212977
0.5293244384948663
0.7467999823783744
0.47930800839456755
0.8441381354322063
0.7147493704432175
0.6448954945415171
0.7173387124181363
0.33147062596798027
0.4797205778419421
0.6732596429501555
0.4248505138405065
0.7628244379791675
0.6438040738585072
0.5766965439680274
0.6456705486132208
0.289375230524344
0.4314367047004678
0.6008349522257008
0.3750016035580261
0.6836491304014176
0.5768361458544032
0.5101110918913325
0.5755374786626712
0.25321932982484757
0.38654651680916624
0.5344537666922075
0.33231250799180045
0.6021915669868394
0.5068632928334469
0.4478676292916488
0.5063391326664908
0.2225443771148294
0.34528574124425365
0.45981080139549735
0.2891624487108657
0.49807118400037664
0.42275110546913763
0.38736670332141854
0.44316133151220194
0.19948276123447733
0.3074154744800873
0.3711059401542854
0.2385903316559992
0.4066373981283589
0.3494418681613117
0.3187576639675719
0.37327880973958427
0.18147621732127173
0.27595730365802174
0.3135734175673646
0.2108962904900662
0.37081487462020846
0.3253332775099572
0.26451638772468256
0.3052320920989633
0.1726890950259704
0.2541205583624885
0.3003568532917693
0.18819380443459893
0.3192137615329806
0.25253230978606145
0.23960094269452226
0.2610019341802793
0.11729148070446198
0.21622375831572455
0.2570214943604995
0.1202291173453168
0.3742184963076024
0.3041075710393389
0.2566372531270264
0.2580736097022604
0.13147712526984384
0.19287799398045147
0.3732156732994105
0.22966834288184806
0.4768381834578028
0.4034017783085039
0.2848969099069749
0.28551549168169377
0.14480812394594583
0.23049536002796367
0.3906964569439876
0.24101542678745536
0.506293638148112
0.4300490131408787
0.32403871877073126
0.32186168189211084
0.16898473663871136
0.24651086922385768
0.440003361272878
0.28092508764903573
0.5694656567321252
0.4866320081155164
0.36694402967666667
0.36657656837864433
0.1928029619386608
0.26989619728175973
0.5001963189687996
0.3985157943471893
0.6009337117671556
0.5820868357621543
0.4186513846389828
0.4148613908060972
0.289398083566582
0.2893921716245341
0.5340163394913686
0.4912718213445731
0.5584537157671581
0.5345560736253638
0.4815281554903178
0.4669005934362879
0.35195237382302635
0.3336496774600002
0.5286333476724729
0.6144416545333462
0.5484227449957572
0.6581286939984248
0.5529966484433035
0.5303288325369379
0.5020552204583274
0.2828501920287983
0.6020423978580309
0.7994073009241388
0.6192805528622981
0.7069395069257383
0.6218427457969872
0.5925863937055442
0.6730293787511723
0.4193643377504395
0.6735295290928799
0.8507425833172122
0.6878509986511638
0.7774050988120561
0.6961513560822532
0.6617027277906276
0.7172520697564002
0.4470710711919598
0.7442184267130791
0.9231742684569217
0.7573147727031517
0.8467165142861021
0.767567974631811
0.7338223735592689
0.7827305008614776
0.5034708176557998
0.8133119318546749
0.989046815880343
0.8243567634188633
0.9106899058615814
0.8369059212746428
0.8042583100418516
0.8433587612587351
0.5605846920690498
0.88132049691766
1.0702185787418255
0.9017249527545952
0.8683552086757667
0.9223422263000012
0.617125498798149
0.9315863296237703
0.6865631718169024
0.6322255420945553
0.650716266786806
0.5287105915630397
0.6610019695614281
0.6863936767347107
0.7339766986207734
0.628001580317059
0.6953893817430546
0.7114199386631066
0.7281333714519866
0.6736493670848921
0.4806374330690696
0.6550826313430179
0.6551774292283883
0.6362463110986563
0.6203105520639747
0.6734981414203784
0.7079615646516284
0.6596967481894505
0.5685751103761791
0.6334350001971139
0.6003405450148065
0.6117384392582661
0.5945797431106403
0.6533572524392003
0.6745840734181032
0.5787969950295386
0.603286321039769
0.6149751468839308
0.5763902224606282
0.5966218735370951
0.5751956452614182
0.6406557243510729
0.6573412689674946
0.5581571718346865
0.5548031424994309
0.6093164054195548
0.56195769892746
0.5934005799395884
0.5674681017231705
0.6381521608380933
0.6511382064227756
0.5421161927462191
0.5371210884542355
0.612040501407558
0.55847824846076
0.5979654752115543
0.5703357004811742
0.6430632752593555
0.6532591092099245
0.5377819533767861
0.5269303004579559
0.6217078362649731
0.5646358068595896
0.6095806936800671
0.5801384390050637
0.653741380727877
0.6610217935262557
0.5429897180582492
0.5279933165958601
0.6356613244713372
0.5764142150682022
0.6257459087851075
0.5959410540569758
0.6683332257538486
0.6742861394254824
0.5543775307920952
0.5364556659276163
0.6537148607411903
0.5941522811346456
0.6465633216427009
0.6168055967642878
0.6851229246302823
0.6898258739567108
0.571817713025265
0.5515698016714883
0.675016406510909
0.616522813215082
0.6679510123953041
0.6392151439778903
0.7041518503551214
0.7071068293760054
0.5934720152174201
0.5714202306572453
0.6906135324591104
0.6385308514332763
0.6833367238850825
0.6599899112766621
0.7193386701396591
0.7258115939200653
0.6181668770298877
0.59580037157684
0.7066493110618965
0.6630053278617232
0.7076753830002291
0.6873782124084762
0.7305857636969982
0.7359983142007329
0.6438955121801874
0.6205161211917377
0.7324596670665762
0.6953201640608635
0.7389851612694082
0.7221428288554484
0.7522751598433096
0.7514273284120643
0.6767409522935973
0.6496891849596742
0.7623734511596256
0.7343691803830823
0.772870458263911
0.7617085199013274
0.7776571622711939
0.7740843651577098
0.7167261933161704
0.6859206300212703
0.7943742857195808
0.772546441604738
0.8037833640391535
0.7931174582868941
0.8066807714704212
0.8004606551263196
0.7542526774909569
0.7257717687206343
0.8157524963741782
0.8012000460198097
0.8257567350200554
0.8218701904179461
0.8150757213499975
0.8154130747658133
0.7877974492190052
0.7614210973723087
0.8289650569507572
0.8324861003809312
0.8206799962289029
0.8280875842611861
0.8129729984157497
0.809087901460867
0.8189460460637665
0.7949275392999771
-6.046018035535178
0.8216650702960755
-5.680449650194917
1.179825867604054
-15.113441165937385
-8.262735192708313
0.836557901538868
0.8294403611868137
1.1963678461534424
0.857767927329465
0.8459889257250579
0.8443397784184619
-13.04957194477326
-12.69424682333234
0.8627141283420015
-26.448065951045077
1.0758070615259632
1.0752555947774871
1.077970636515016
1.0856396888865727
1.0764547920131922
1.074070497683378
1.0473563771947922
1.0449371420495612
1.0155079798234468
1.0554742269963377
1.0252436970687828
1.0656905837496158
0.987428412384699
1.1338873258436473
1.126146395848158
1.3020344715332204
0.9984741364304417
1.0373865954082637
1.279420667734886
1.138928641588676
1.2320498693536495
1.1214462072555933
1.0712868874675414
0.7847951496844227
1.0408971062073462
0.9460393567475974
0.89074667306663
1.2168682792354961
0.7263579809147588
0.5728230518288839
0.5720711904052397
0.7050279991024837
1.0036385212028776
1.157414664609357
0.7084154188555403
0.6896879825221158
0.6878504333381503
0.8033536055519588
0.7810277300984859
0.7635740936150504
0.544320668638619
0.7058219659938273
0.7824865875975714
0.8197533481747526
0.7326810543416785
0.7271206207599081
0.7033851889937467
0.7152783918954118
0.7379878675641925
0.642804778621469
0.7450496763985436
0.7606361312992986
0.687847470989345
0.7151151100670858
0.6843680114753127
0.6997424476513885
0.6701962411834688
0.6910407724103844
0.7338377421374133
0.7519300796043746
0.6671029036538566
0.7034246630883849
0.6672169626124064
0.6881642858708589
0.6477211823616903
0.6473350603772701
0.7270699032448242
0.7421103198781551
0.65230136874936
0.6981354918251412
0.658835017871538
0.6837218176888669
0.6304490100594368
0.6259828826303169
0.724855113453267
0.738529147655424
0.646361711898373
0.6978446942574417
0.6550057746196328
0.6816019571613727
0.621996886263285
0.6126178335465267
0.7253488680348288
0.7379456130943796
0.6402895579269122
0.6925267446026022
0.6456330125196938
0.671274016653644
0.6167914181168327
0.6071428091744653
0.7225885665267572
0.7391679528629147
0.631601501473578
0.6822537978985862
0.6443052875270716
0.6693165798181298
0.6108439150968431
0.6013772863328795
0.7135395910418707
0.7326216317210834
0.6399175185795901
0.6893214365707129
0.6603651486238905
0.6847577743239551
0.617311618759896
0.6009418013306427
0.7164664313972803
0.7277473677879817
0.6644022930831542
0.709826970837198
0.6916524473535437
0.712684499407523
0.6434381763764531
0.6167951320974953
0.7373828048250375
0.7394586031383619
0.699979224336934
0.7400563760520429
0.7246771867663508
0.7437222864274804
0.6775533098249175
0.648262416134826
0.7642457344352312
0.7644296917785507
0.7293286847160854
0.7642033148161542
0.7494617367413283
0.7652912671802676
0.7065659755541331
0.679488563092382
0.7825676003230674
0.7862759303175821
0.7544458296306189
0.7794966111986761
0.7744622984972556
0.7836835496263737
0.735512972319439
0.7077661702681963
0.7980544871252049
0.8022134286137097
0.7820325652618886
0.7981886666439472
0.7983277598809172
0.8052626101338576
0.7650013484070899
0.738498224331277
0.8113674019833544
0.8154201608923098
0.808345656517342
0.8146387604344443
0.8242511773162071
0.823609430980369
0.7960551373571296
0.769006023865906
0.8195349596827921
0.8233375447216127
0.8355404518911269
0.8263465278796853
0.849830635387798
0.8412784577121948
0.8246919482735411
0.801112154538409
0.8008480024578171
0.8030071048068483
0.8625427007846592
0.826304630186756
0.8541374016870411
0.8264515087647413
0.8517627584511239
0.8282021894366769
1.1849875986633798
1.1744629007669498
0.8532615658192755
-5.464396980450741
1.1958018281123526
-5.094170825235364
0.8697059840745869
0.8598018776088172
-5.760121422943575
0.8894100347485303
1.219295423375041
0.8405850581309144
0.882941751879563
0.8758925748721861
-16.542570158510564
-16.15566419414102
0.8911373510049793
-33.1719735180144
-4.746922438640596
-1.6088147924025766
6.4998049330598064
-2.177638517082666
0.9227673256054666
1.0813299207893983
1.0436281172395112
-8.290572893814902
9.028300820287388
19.827984238232894
0.7060441050031274
0.7029578742226643
0.9871042140529928
1.0685011750674551
0.9830216113017914
1.102120375866141
1.0155735506289503
-5.003135119366879
1.0143896060027129
0.7727933275724299
1.0064019038489467
1.1005686229047287
1.038473607620151
1.0135415621115835
0.9884707703116018
0.9935598143404043
1.2115601060239758
1.159000289920646
1.0446189129860783
1.0313112865712186
1.0586254002301057
1.0702498193238135
1.0000681027073286
0.9759916638040564
1.006478893939937
1.0997006525995492
1.0145739190104996
1.0755670710095806
1.019992872362471
1.0693616052678443
1.1135677500736578
1.1130684210145143
1.0627111526179718
1.0325615083009232
-15.227207793378302
-2.501359055298676
-2.866300805865551
-11.847088670999822
0.8738192967843698
0.8877206136283304
0.8827798433328984
-11.53082572953306
0.8678884834961421
0.8616072448926879
1.220618182171335
0.8929618569102862
0.867672403089504
0.8803556442003924
0.8600069606750425
0.9008736035335212
1.2118953017183287
0.8588502498453949
0.8617456381971074
0.8877210368045716
0.8363986130652195
0.8670739557233469
0.8361002155093447
0.9208180374756589
0.9213643914947147
0.8284456600327212
0.8432318543984351
0.9004857730844584
0.8150897621803563
0.8785823448253502
0.8241600741352504
0.8367611257259153
0.8364463090358913
0.7999284022390544
0.8129859025355446
0.811102910440342
0.8011804881441817
0.7877585927507674
0.8322584411447072
0.878446230397857
0.8822010174243222
0.7778532203990696
0.785671446448836
0.8663858969037945
0.8113650661698641
0.8499550577316022
0.7504343786037322
0.8528372008099163
0.8415532166144044
0.7678139279893211
0.7653800352190518
0.8257169668681535
0.7193354979851014
0.7885486968214828
0.7816879070663005
1.1020397682169474
1.1127291629865181
0.768824442458234
0.7563721848963217
1.0625645138100315
0.7542509646934792
1.0706057812479108
0.7691530218865407
1.0537784426195456
1.0560854269797908
0.6841390170651132
0.7610649039110671
0.959500834982469
0.9216527044760338
0.9363038002383712
0.8606717174217016
1.0149721613465383
0.977188209036304
0.9293685788551158
0.8372355984906097
1.0028158902255286
1.050735241821388
0.9257349454104384
1.011438249316532
1.0472329746569575
1.0524540243947116
0.8775220223388216
0.7805388706226457
0.6418668270079547
0.715500643190798
0.5763540971929839
0.5642846094697336
0.5367782327980535
0.865063435631966
0.8480385469316614
0.9707629335748291
0.573485792120151
0.56073018049184
0.6398656302828876
0.6391795063778268
0.5945333126972291
0.4923130235601608
0.43407753142897315
0.5701698641477302
0.6127650511485866
0.5965937658963391
0.5842267921807884
0.5687416308336016
0.6307961958924595
0.6789442956038385
0.597125370128837
0.513058461547458
0.5795524156703908
0.5467459707220181
0.5600142075288579
0.5426929239276719
0.6002286715665018
0.6229341928207722
0.5249474532995431
0.5474747176436244
0.561492955612304
0.5223427215908154
0.5438890052524981
0.5220600548321954
0.5867479415056367
0.6059454493183015
0.5034968052830296
0.502048490197411
0.5538406496712315
0.5072908584225777
0.5387435894717635
0.5140227486434124
0.5814766674120819
0.5967800088866813
0.48622726825687473
0.48215054835870685
0.5541715588813947
0.5026996859113826
0.5415363766310302
0.5147853444893693
0.5833006762479499
0.5955087245791691
0.48125076611488876