# vtk DataFile Version 1.0
Tissue data
ASCII

DATASET POLYDATA
POINTS 1593 float
0.0607561 -0.605393 0.823089
0.047179 0.479263 0.880709
0.203368 -0.748773 0.705884
0.180626 -0.730012 0.72583
0.158507 -0.710923 0.744417
0.137664 -0.691073 0.761981
0.117319 -0.670599 0.778507
0.0987722 -0.649777 0.794052
0.0799047 -0.628251 0.808744
0.0922988 -0.594209 0.825979
0.124398 -0.584034 0.827284
0.156203 -0.572689 0.828156
0.188911 -0.560263 0.828368
0.22242 -0.546827 0.8278099999999999
0.256632 -0.532412 0.826414
0.291436 -0.517028 0.824121
0.326699 -0.500672 0.820888
0.362271 -0.483341 0.816678
0.397995 -0.465043 0.811458
0.433697 -0.445798 0.805204
0.469194 -0.425641 0.797901
0.504304 -0.404626 0.7895409999999999
0.536717 -0.384225 0.7807459999999999
0.567853 -0.36371 0.771246
0.598251 -0.342712 0.760909
0.628497 -0.320891 0.749444
0.659542 -0.297231 0.73638
0.689511 -0.273483 0.722244
0.717809 -0.249515 0.707657
0.745122 -0.225889 0.69163
-0.22213 0.749364 0.703218
-0.194919 0.730694 0.72462
-0.168109 0.711214 0.744721
-0.142435 0.690615 0.763726
-0.11728 0.668853 0.7817189999999999
-0.0940525 0.646211 0.798763
-0.0713802 0.62413 0.813928
-0.0508839 0.600462 0.8281229999999999
-0.0301906 0.57682 0.8409949999999999
-0.0106093 0.552956 0.852565
0.00835224 0.529261 0.862797
0.0274085 0.504867 0.872144
0.0613372 -0.574846 0.838682
0.062306 -0.54475 0.852603
0.0632167 -0.514498 0.8653109999999999
0.0640891 -0.482855 0.87732
0.0649426 -0.449824 0.888546
0.0657313 -0.415427 0.898913
0.0663948 -0.379733 0.908346
0.0668954 -0.342858 0.91678
0.067229 -0.304941 0.924168
0.0674238 -0.26612 0.93049
0.0675224 -0.226522 0.935753
0.0675641 -0.186277 0.939982
0.0675918 -0.145512 0.943209
0.0676437 -0.107099 0.945366
0.0677947 -0.0693551 0.946788
0.0681253 -0.0315703 0.94759
0.0682137 0.00692668 0.9477949999999999
0.066103 0.0477831 0.947655
0.0641184 0.0880084 0.946677
0.0622983 0.127556 0.944931
0.0606107 0.16635 0.94239
0.0597778 0.204633 0.938904
0.059367 0.242159 0.934501
0.0578645 0.278994 0.929387
0.0562684 0.314723 0.923442
0.0546164 0.349243 0.916692
0.052886 0.382513 0.909168
0.0510741 0.414518 0.900907
0.0491716 0.446579 0.8915299999999999
0.0776654 0.470634 0.881818
0.108474 0.461099 0.88168
0.140381 0.450915 0.881086
0.173065 0.439907 0.879657
0.206547 0.428104 0.877445
0.240773 0.415488 0.874401
0.275657 0.402042 0.870492
0.311082 0.387753 0.865675
0.346904 0.372621 0.859904
0.382963 0.356668 0.8531299999999999
0.419088 0.339933 0.845307
0.455103 0.322472 0.836391
0.490824 0.30435 0.826353
0.523923 0.286845 0.815895
0.555784 0.269307 0.8046909999999999
0.58696 0.251418 0.792552
0.61795 0.232833 0.7792169999999999
0.649886 0.212778 0.763993
0.680518 0.192598 0.74783
0.709652 0.17235 0.730881
0.737198 0.152122 0.713414
0.763786 0.133567 0.694257
0.0310274 -0.596729 0.829246
0.00212535 -0.587528 0.834577
-0.0264724 -0.577635 0.839136
-0.0559748 -0.566832 0.842943
-0.0863146 -0.555417 0.845858
-0.118522 -0.542302 0.847676
-0.153281 -0.528005 0.848982
-0.188815 -0.51283 0.849208
-0.224997 -0.4967 0.84847
-0.261572 -0.47956 0.846763
-0.29834 -0.461447 0.844075
-0.335119 -0.442419 0.840387
-0.371727 -0.422544 0.835688
-0.405743 -0.403207 0.830368
-0.438613 -0.383738 0.8243199999999999
-0.470941 -0.363807 0.817446
-0.503279 -0.34303 0.809581
-0.536827 -0.320485 0.800271
-0.569288 -0.297671 0.790024
-0.60054 -0.274707 0.778897
-0.630503 -0.251723 0.766933
-0.659063 -0.22882 0.754235
-0.686203 -0.206126 0.740849
-0.711725 -0.183682 0.726984
-0.735528 -0.161445 0.712951
-0.758514 -0.140554 0.697566
-0.102063 -0.782894 0.695102
-0.0761642 -0.76545 0.71328
-0.0542848 -0.74458 0.732081
-0.0330978 -0.722856 0.750041
-0.0133589 -0.700304 0.7669549999999999
0.00570666 -0.677435 0.782567
0.0240149 -0.654467 0.796827
0.0425024 -0.630542 0.810256
0.264392 0.738407 0.700815
0.241745 0.7175 0.723683
0.219568 0.695806 0.745162
0.197943 0.673421 0.765255
0.177042 0.650315 0.784076
0.156677 0.626664 0.801619
0.137118 0.602612 0.817865
0.117603 0.578349 0.832768
0.0996422 0.554187 0.846415
0.0819053 0.530495 0.858528
0.0640939 0.50616 0.869933
0.0179001 0.467815 0.885734
-0.0106805 0.456429 0.889589
-0.0389659 0.444934 0.89245
-0.0678435 0.432698 0.89456
-0.0987709 0.419166 0.895526
-0.132113 0.406785 0.895091
-0.166312 0.392466 0.894115
-0.201251 0.377036 0.892323
-0.236732 0.360627 0.889649
-0.272581 0.343296 0.8860669999999999
-0.308618 0.3251 0.881551
-0.344666 0.306111 0.876073
-0.380551 0.286419 0.869605
-0.413927 0.267416 0.862622
-0.446206 0.248433 0.8549289999999999
-0.477972 0.229153 0.846379
-0.509752 0.20922 0.836758
-0.542701 0.187788 0.825527
-0.574584 0.166296 0.81331
-0.605275 0.144843 0.800162
-0.634663 0.123515 0.786161
-0.66266 0.102389 0.771392
-0.689234 0.0815411 0.755938
-0.714457 0.0611346 0.739808
-0.738152 0.0412281 0.723223
-0.760243 0.0217219 0.706415
-0.781034 0.0028039 0.689029
-0.767907 0.0928208 0.695345
-0.764718 0.0567472 0.701128
-0.746626 0.22652 0.690244
-0.747156 0.187188 0.698585
-0.74623 0.149191 0.706082
-0.743994 0.112586 0.712979
-0.741786 0.076681 0.718155
-0.716527 0.289951 0.697136
-0.7188 0.249749 0.706951
-0.720391 0.210396 0.714962
-0.720388 0.171816 0.7224619999999999
-0.719129 0.134181 0.7292
-0.717164 0.0972348 0.734939
-0.682021 0.354404 0.701728
-0.686194 0.31365 0.713027
-0.689755 0.273463 0.722302
-0.691856 0.23356 0.730892
-0.692875 0.194452 0.738383
-0.692597 0.156109 0.745096
-0.691346 0.118473 0.750931
-0.643162 0.419243 0.703609
-0.649314 0.378432 0.716431
-0.654857 0.337823 0.727168
-0.658894 0.297132 0.737184
-0.661956 0.256925 0.745893
-0.663754 0.217248 0.7536349999999999
-0.664428 0.178294 0.7604029999999999
-0.664022 0.14002 0.766308
-0.600504 0.483113 0.70245
-0.608442 0.443321 0.716677
-0.615926 0.402759 0.729051
-0.621856 0.361759 0.740689
-0.626835 0.320929 0.750914
-0.630577 0.280318 0.760034
-0.633239 0.240213 0.767994
-0.634754 0.200697 0.774957
-0.635208 0.161815 0.780982
-0.557501 0.541126 0.698612
-0.56604 0.504337 0.713759
-0.573995 0.467112 0.727255
-0.581411 0.42652 0.740763
-0.588057 0.385583 0.7527929999999999
-0.593554 0.344538 0.763588
-0.598046 0.303709 0.773063
-0.601433 0.263232 0.781376
-0.603751 0.223259 0.788592
-0.605005 0.183808 0.79483
-0.521448 0.56207 0.708174
-0.531278 0.525388 0.723156
-0.539669 0.487929 0.737426
-0.5471 0.449314 0.750845
-0.553704 0.408676 0.763627
-0.55962 0.367774 0.77493
-0.564608 0.326867 0.784905
-0.56863 0.286198 0.793611
-0.571614 0.245881 0.801185
-0.573571 0.205936 0.807727
-0.473908 0.617408 0.699842
-0.485036 0.581541 0.716857
-0.495548 0.545344 0.731978
-0.504765 0.508237 0.746425
-0.512444 0.469872 0.76035
-0.519281 0.430299 0.773314
-0.525407 0.390001 0.785041
-0.530767 0.349428 0.795439
-0.535226 0.308861 0.804582
-0.538693 0.268456 0.8125749999999999
-0.541118 0.228154 0.819554
-0.433845 0.637716 0.706917
-0.445885 0.60201 0.724155
-0.456774 0.565188 0.740545
-0.466888 0.527683 0.755601
-0.475836 0.489359 0.769631
-0.483727 0.450281 0.782584
-0.490683 0.410645 0.794351
-0.4967 0.370675 0.804912
-0.501731 0.330624 0.814285
-0.505607 0.290628 0.822607
-0.508113 0.250443 0.830108
-0.393685 0.656088 0.7129949999999999
-0.405852 0.620941 0.7308479999999999
-0.417157 0.58456 0.747759
-0.427688 0.547058 0.763543
-0.4375 0.508749 0.778011
-0.446437 0.469759 0.79122
-0.454479 0.430279 0.803152
-0.461624 0.390541 0.813796
-0.467814 0.350796 0.823191
-0.472863 0.311331 0.831452
-0.476011 0.27061 0.839328
-0.3428 0.705552 0.6979339999999999
-0.353701 0.67279 0.71809
-0.365656 0.638488 0.7364189999999999
-0.377163 0.602761 0.753826
-0.38808 0.565768 0.770098
-0.398372 0.527747 0.785113
-0.408008 0.488961 0.798769
-0.416906 0.449607 0.811065
-0.425034 0.409899 0.822006
-0.432393 0.370055 0.831608
-0.438988 0.330285 0.839916
-0.443641 0.289899 0.847638
-0.302431 0.721427 0.700934
-0.314064 0.689088 0.721174
-0.325519 0.65512 0.740576
-0.337091 0.619938 0.758595
-0.348272 0.583519 0.77539
-0.358947 0.546007 0.7909079999999999
-0.369061 0.507607 0.805071
-0.378571 0.468542 0.817831
-0.387432 0.429009 0.82919
-0.395626 0.389184 0.839176
-0.403187 0.349177 0.847837
-0.410197 0.308809 0.855278
-0.262319 0.735906 0.702696
-0.274221 0.703953 0.723553
-0.285809 0.670729 0.743359
-0.297253 0.636098 0.762043
-0.308557 0.60027 0.779406
-0.319497 0.563338 0.795451
-0.329975 0.52546 0.810125
-0.33994 0.486828 0.823386
-0.34935 0.447634 0.835221
-0.358178 0.408043 0.845653
-0.366408 0.368148 0.854743
-0.374018 0.327835 0.862613
-0.234505 0.717774 0.724718
-0.246291 0.685137 0.74505
-0.257838 0.651203 0.764223
-0.269183 0.615999 0.782166
-0.280283 0.579679 0.798763
-0.291019 0.542386 0.813971
-0.301327 0.504284 0.827751
-0.311161 0.465549 0.840089
-0.320483 0.42634 0.851001
-0.329265 0.38676 0.860543
-0.337425 0.346778 0.8688279999999999
-0.207068 0.69858 0.745519
-0.218847 0.66525 0.765238
-0.230317 0.630702 0.7837189999999999
-0.241528 0.59501 0.800882
-0.252428 0.558329 0.816645
-0.26298 0.520809 0.830966
-0.273133 0.482608 0.843828
-0.282843 0.443878 0.855243
-0.292073 0.404728 0.86526
-0.300738 0.365176 0.873975
-0.180361 0.67837 0.765055
-0.192041 0.644402 0.784124
-0.203402 0.60933 0.8018609999999999
-0.214405 0.573276 0.818193
-0.225112 0.536357 0.833074
-0.235489 0.498728 0.846481
-0.245484 0.46054 0.858419
-0.255069 0.421894 0.868932
-0.264159 0.382828 0.878104
-0.154422 0.657172 0.783409
-0.166035 0.622639 0.801763
-0.177096 0.587229 0.818666
-0.187908 0.550932 0.834114
-0.198433 0.51387 0.848094
-0.208598 0.476255 0.860576
-0.218441 0.438165 0.871601
-0.227875 0.399626 0.881253
-0.129591 0.634974 0.800659
-0.140556 0.600171 0.818153
-0.151474 0.564567 0.834131
-0.162178 0.528057 0.8486899999999999
-0.172356 0.490983 0.861753
-0.182337 0.453482 0.87331
-0.192044 0.415505 0.883459
-0.104856 0.612334 0.816514
-0.11568 0.577183 0.833155
-0.126921 0.541345 0.848312
-0.136992 0.504826 0.861958
-0.146867 0.467798 0.8741099999999999
-0.156781 0.430413 0.884764
-0.0823699 0.588577 0.831578
-0.0926036 0.553172 0.847302
[...]
CELL_DATA 3055
SCALARS gaussian_curvature float 1
LOOKUP_TABLE default
1.1023476998183244
1.1407998513361701
1.2762393805524528
1.324356284511242
1.1636079657718221
0.7827147716018867
1.1543157305110228
0.8323569708448391
1.1655057782361293
0.970960325307811
0.7747463276977833
0.7891002006695791
1.1724626746955626
1.1753017717735996
1.328687217202562
1.0576221536324886
1.064768225040313
1.110676022716659
1.2098194117960555
1.0903177204818695
1.1315752402606982
0.9658027670575524
1.090513301373496
0.9443572660055422
1.3071100841741123
1.1630048191082976
1.0667449359627876
1.0623307179573231
0.9928181278996875
1.2719953496160614
1.0108260067319343
0.9501974619041766
1.06521076942035
1.2820956694744976
1.100933704221589
0.8944372412794086
1.128279834529188
1.0718358409819735
1.0852119158101114
1.0507384876312686
-1.0852479008880658
-0.7160685928366062
10.880071174769348
0.8593337247711123
1.2563587642862013
0.8641294881520536
0.891975219615683
12.823873699402872
28.5103682551786
0.8679796403536388
0.8672005393279842
1.1688903825556554
0.7232102464752349
0.8561483712753071
0.8077862624320088
0.871722262780332
0.7955144224734044
0.8505933875919383
0.8672204200512115
0.8659510839302973
0.8626716593834255
0.8587322216908712
0.8789694389717995
0.7785290659519181
0.8749741235397739
0.8280634287963075
0.8354984862023995
0.8410101987644025
0.8157200037642959
0.7562499748070316
0.8413324816451113
0.8201721994561904
0.8088096487064143
0.832542867895395
0.8241531661457178
1.143075241057581
1.1387576427448467
0.7999003595573113
1.1216866161988255
0.738030559264429
0.8345952922516714
1.1008431219024672
1.0897089138225258
0.7625187266478533
1.200165965224804
0.810449895202555
0.8576484979910435
0.8912257935739492
0.6779760128513397
0.8609677647841526
0.8104283483807199
0.8550267389130033
0.7962768099848043
0.807297904934182
0.8118633100247722
0.8826423460299126
0.7863675183396435
0.7815909206391465
0.7980222404764639
0.7754927823751125
0.7809030072630525
0.7875356538334211
0.8036565048231314
0.7903765481618941
0.8272678197365215
0.7682094329120581
0.7685463110075568
0.7610941747895278
0.7560208279970866
0.7819464426677083
0.7951745253250373
0.7615090675861536
0.7662200715270793
0.7641354690334023
0.7470449558468409
0.7543906568213452
0.742373490427225
0.7828379231172322
0.7935336386290077
0.7351614943999774
0.7371001231288197
0.7637487974692336
0.7345018467418982
0.7532299881223443
0.7360002037891291
0.7868881236360818
0.7962324370720233
0.7192211797822963
0.7152093620207596
0.7675838334523022
0.7292409275214152
0.7567060721661131
0.7355929505684414
0.7922085613854859
0.8009940422223764
0.7115669338308955
0.7030455431390075
0.7743485016089288
0.7288370138939018
0.7638202167468473
0.7394218506294921
0.800220639081144
0.8072029375715122
0.7093810839039982
0.6984630268880181
0.7824310874350487
0.7335000201368416
0.7721458224642143
0.7476131212833623
0.808887431732139
0.8161486985161528
0.7122539768043779
0.6987198773071248
0.7917753009886597
0.7419485767318987
0.7830918467471002
0.7577978236711911
0.8165236575563808
0.8233505233290256
0.7201428589878297
0.7045613602068297
0.8028239122071161
0.752722598931663
0.7923759432674213
0.7675686530678775
0.8259980935625897
0.8310143846702951
0.7307253067497748
0.7139948137452339
0.8056962572080608
0.7610582345813588
0.7925210758440471
0.7726903434168889
0.8310437170077425
0.8408975844225766
0.7420441089158369
0.7265572352204671
0.8064767036895927
0.7677159587833196
0.8002886738697755
0.7813586613906606
0.8290532745872904
0.8404451065414265
0.7516253455988605
0.737585604566908
0.816363564366403
0.7834182222938385
0.815858611021871
0.8018432814284215
0.8288327042394801
0.8353343846405502
0.7687736869108193
0.7506235128231821
0.8278360122446107
0.8090101959113525
0.8336408512986035
0.8288303645587951
0.8176110685473269
0.8181028071976643
0.7951860778114546
0.773374627945504
0.823126024720285
0.8397667596828375
0.8293969781009094
0.8508481998032706
1.2230202882727075
1.2233101711537424
0.8267033250917386
0.8019428118677978
1.2193908864378686
0.8582094785999919
1.2264373518691065
0.8438047223288685
0.9109014195552174
0.9208017747706811
0.851697793726401
0.8312730803385808
0.9173831152237184
0.8504223907304664
0.8941157074552804
1.2097876125022664
0.8676985890218027
0.8545692357466139
1.2342853354386825
0.8385520308114041
0.8790590616921172
0.8718375370470375
-13.944735780239707
-13.546401010948538
0.8816605263560087
-24.681457897968997
-3.2004284697756162
13.455411125121406
13.50101079412184
0.8831694046986588
17.55963917278164
0.8881485855759925
0.908778758761951
17.58777483041531
0.9795291646769544
0.8866356419769594
0.8898018037961531
22.40988274424696
0.8799551118453759
0.8102693219150465
0.8919318274990016
0.8016158643827137
0.8691442816141031
0.8808039926230202
0.8273178080446948
5.7760708163569205
0.875334542798068
0.8424758363550074
0.7933192332677593
0.8507764899409866
0.8472715984353153
0.853058052904976
0.8119528973029415
0.788141411460296
0.7782101432797528
0.8372950512778787
0.8153895518462169
0.8170172031711156
0.8466834305743893
0.8337295761996433
1.1291491799499456
1.1121076795609874
0.7722060655597562
1.1350341585350476
0.974233670583424
1.3354341122338167
0.750219934231169
0.8618767078122662
1.1512235192097142
1.1250606925178488
1.0136795464382256
1.364978430414899
1.221686163776186
1.2117846061024669
0.6859232044165023
0.6244911972331135
1.248254410798154
1.2348994532917381
1.263453743723033
1.1037802894578266
1.2732246375522118
1.1234527409607242
1.1418576982820317
0.7723337763134612
1.1229363223190887
1.114216619346984
1.2460487070650135
1.1352999786819202
1.0925611977033107
1.1315843659117049
1.399081291368498
1.3046611764146947
1.1459301015352588
1.153238896675325
1.1080618452040314
1.135226229604235
1.123338072799965
1.1114792889917744
1.0481184029711708
1.1856503397739349
1.084407998916527
1.0913962580773353
1.1155649632676723
1.0341935894018461
1.1307330347451043
1.0785627020445365
1.1970735816412357
1.223541050543456
1.095965769282079
1.1209731355599675
1.1784833500189653
1.3261115227673796
1.1619813829615293
1.0701470323018225
1.1126564498301699
1.1621698732108228
0.824310180901052
1.308674522317709
1.1349449698137886
1.0484279752290482
1.104033307068462
0.631688068211979
1.133483032065484
0.7843763921665006
1.277022638337259
1.101645550942196
1.0097916008451298
1.07124119311558
0.5877302175888228
0.7456766825470378
1.0909758255283994
0.7410557174557884
1.2316349676341696
1.0570919469566216
0.9663702263148757
1.028725607903381
0.5426983172296291
0.7066419761383589
1.038877682466054
0.6927985765364344
1.173418928677537
1.0018828434254654
0.9152751751945183
0.9834268611491102
0.49694237481889736
0.6628783450129253
0.9770559453963958
0.6399449342022466
1.1035439106146692
0.9379689846725916
0.8593216554483993
0.9320821314580048
0.4508412858665737
0.6169229933722554
0.9087546014261911
0.5850388541918007
1.0254530076599395
0.8673121863676266
0.7949268889056207
0.8719819081461022
0.40541629595692397
0.5692427781020418
0.8334896763679365
0.5292190083005242
0.93809865268792
0.7919688059128205
0.7239007766203961
0.8020363953918286
0.3623667760085234
0.5208373958407492
0.7526452941460294
0.47416645315299905
0.846660475587478
0.7143114813695473
0.6495791925213372
0.7254436513156874
0.32278745703297274
0.4737375775007934
0.6723347353439364
0.4224110633961567
0.7578524576373222
0.6402777799074734
0.5764509406215964
0.6477105792404458
0.28768938141941525
0.4282108032727795
0.5991893781426534
0.3775076870375548
0.6684290720483652
0.5643220586731154
0.5098508044118166
0.5726300891841454
0.25878903070642045
0.38683744159959765
0.5182769976818145
0.33336414614550947
0.554967870687417
0.4741620325263619
0.4426947371879257
0.5035082378236396
0.2365876530822255
0.3488269092786972
0.4213989132544472
0.27905980589959467
0.4568785942815038
0.3953453250877065
0.3685753413926992
0.42656203833178036
0.2181921068044232
0.31651784036790653
0.359454808969127
0.2508642944488045
0.41600059543483814
0.3689433501083129
0.3090546262982945
0.3536548397489233
0.21005044714209414
0.2936637786858247
0.3429589868790306
0.22320060201208503
0.3640804924690053
0.2913793529285849
0.2818508842911289
0.3044923101761039
0.15065480172594037
0.2555837025154579
0.3018164809372188
0.15534461468973362
0.42097712787297065
0.34720640116590584
0.30053661948766164
0.3016925284315464
0.16438266237300989
0.22787160032571652
0.4195092000591659
0.26843651262464624
0.5267971928529158
0.44949523212546094
0.3304419147812841
0.33062998114553166
0.18112732204924767
0.2689352582737835
0.44114178226999295
0.2824197960492069
0.5628411360326839
0.4814211105393527
0.372706392402703
0.3692945177077439
0.20612774709706166
0.2858939925979171
0.49704121260421996
0.3247209670003399
0.6348900565260707
0.5439898364155218
0.42129197988150136
0.4186565134426753
0.229848777840797
0.31025687242766453
0.5643933195108899
0.4515597137103329
0.6711782913656404
0.6492449056756322
0.47796021058438476
0.47270771487684704
0.33230904934204586
0.3298669828876919
0.6014783495372517
0.5529320452954987
0.6271339677955255
0.6005210492437807
0.5460417783278385
0.5293086112297222
0.3994278986739088
0.3764900946857554
0.5960858988393393
0.6849064858298219
0.617069911941149
0.7325034174833766
0.6222653280964643
0.5978768258432374
0.5581421220175775
0.3202525388099465
0.6750984408555205
0.8831956641801423
0.693133430920931
0.7857971487033253
0.6965409366809276
0.6646918370236812
0.7396694753244317
0.4622128648154217
0.751567945104063
0.9393065621264652
0.7651114846232326
0.8601863838632406
0.7761993420862044
0.7392073237284796
0.7868312307178491
0.48979562843899865
0.8251024388714534
1.0171313447628334
0.8348422790367536
0.9317962856881257
0.8508978232250006
0.8155382659589211
0.8553633345330567
0.5459430422248477
0.893666486029307
1.0851452848347631
0.8988532232595995
0.9933780154136838
0.9234448140599414
0.8904159914209351
0.9173462708839751
0.6022292615075608
0.9577474787755227
1.1672855784457803
0.983610607788141
0.9544946803028522
0.9975415519744583
0.6558349749915738
1.015973071816129
0.7244050975545557
0.6526910878182566
0.6801268810547993
0.545344427848918
0.6798718186059263
0.7113581435745542
0.7749284321810594
0.661591095224378
0.7348526216408029
0.7562977378900029
0.7637664065769396
0.6961455862383492
0.49894518794713116
0.686036883070435
0.6943569935233029
0.6683598841023896
0.6552348783060575
0.7008519976201982
0.7385057105864465
0.7032885642518534
0.6025834013413066
0.6614964560621517
0.6349610071321244
0.6404643270966182
0.627053883962923
0.6776702357481061
0.6993487783381074
0.6140990690002727
0.6433045109027561
0.6401357234787912
0.6069219558537079
0.6230873940915321
0.6032840696001441
0.662578968988319
0.6790813522921004
0.5900501843448024
0.5893201743221657
0.6332229494306245
0.5908718318432181
0.6181657028614911
0.5956179097654728
0.6592548290818553
0.6715625192522908
0.5725783548692587
0.5681188211172792
0.6353085457374646
0.5866162953469811
0.6225027955340628
0.5963583382395974
0.6639352271249164
0.6728242639001736
0.5674184418460324
0.5581265792905648
0.6440787864880114
0.5909048056348295
0.632984386865807
0.6059548633070904
0.6737247707023708
0.6807754611358738
0.5705669964211875
0.5568226755250069
0.6577694170389553
0.6025902454938664
0.6493569673303414
0.6212073193439692
0.6882608968913145
0.6931218509325257
0.5819435036018249
0.5649703122014069
0.6759297898122405
0.6204320134504147
0.6690503099039562
0.6417021815285027
0.7056551812954546
0.709573838665915
0.5993336976895389
0.5794622616910521
0.6967466773015872
0.6424370500827079
0.6902622488531593
0.6633007500097334
0.7250519579764254
0.7270809820620086
0.6210233906629611
0.5991902063478802
0.7126900386010395
0.6637391237696021
0.7062483222732985
0.6842589062852868
0.7400740027479557
0.7459514936749136
0.6447477663270347
0.6228957331474194
0.728933488388762
0.687893320729754
0.7305156063647911
0.7114648546937946
0.7519607711948978
0.7566595692263504
0.6694369478541733
0.6468111759671387
0.7542656694669
0.7192557357576518
0.7604423583978459
0.744483176359594
0.7727733070873817
0.7720505267914085
0.7018510670989836
0.6756038131595458
0.7833351769209262
0.7566341984282505
0.7935420956992084
0.7828002992447844
0.7988468322745923
0.7944616513719935
0.7404330408730104
0.7108773501456858
0.8145797537420592
0.7942240069823671
0.8231760965391213
0.8135621462338531
0.8267365400239322
0.8212105373347475
0.77690277067345
0.7492779053806273
0.8354842821733539
0.8209762656781247
0.8452726924342202
0.840378626244259
0.8349319579395661
0.8347805585872063
0.8085168212142754
0.7837814654610868
0.8484747772844438
0.8509633943802855
0.8397792522995678
0.847161935585371
0.8345162156207094
0.8307618065366981
0.8383825334686027
0.8153383208687268
-6.749516093701534
0.8410518274680664
-6.390806738256467
1.1923784996273308
-16.34859840671639
-8.773261622379023
0.8544105113213957
0.8479397585270174
1.2097459196688858
0.8525322597315277
0.8657495134054256
0.8617407772171999
-13.845895461491141
-13.47400692782636
0.880424387132848
-27.945149503975152
1.1626957638980924
1.1686176589278046
1.1727491753193813
1.1735617130495022
1.1542375387174495
1.1702597623520832
1.1367647460612136
1.1394534915565258
1.1018269588740794
1.1481848280210882
1.1054993397304327
1.1523497181400102
1.0697172003606479
1.2470248070632055
1.243375518319962
1.4583096577049661
1.0850654658223693
1.1327268226872524
1.4218572350227796
1.2453939805028726
1.3682990451283776
1.232756148731079
1.1716745496396428
0.82119751385734
1.135901238163672
1.0263259768169777
0.9337694355166435
1.3341553724501047
0.7529812249512936
0.5563752063891362
0.5682794173051783
0.7221504345253236
1.091558016468325
1.2778535341919683
0.7141077625634504
0.6799433568172186
0.7122389384973515
0.8389515614005822
0.8210628701100736
0.7939044757931589
0.5482269707853249
0.742844241110183
0.8055119252486875
0.8464433545477432
0.7653736229656702
0.7469185640675742
0.729830776402553
0.7385341118213714
0.7774397937059034
0.6691170731382801
0.7615554502168898
0.7751017257905801
0.7151565485216161
0.7352816677625933
0.709461471423954
0.7208832552461125
0.6993342567032212
0.7260746553243911
0.7500515307029534
0.7679408609110472
0.6918076406190142
0.7210736405033635
0.6901950432610405
0.7080392593232312
0.6749444737144468
0.6767760127009914
0.742098104889269
0.7566775825723782
0.6759787215436068
0.7162360578229708
0.6810853126193613
0.7034984328365348
0.6559232359909725
0.6532763908038388
0.7407314902597697
0.7535591561459356
0.6687782996021999
0.7161673516844367
0.6764714946125627
0.701447426477626
0.6465207374656636
0.6387722649301908
0.7421299123428069
0.7539564259317039
0.6628527596637424
0.711573165976844
0.6681831430080272
0.6919276174560655
0.6405689627728202
0.6319301355851042
0.7401480631724291
0.7559848843315813
0.6546422871789366
0.7031441996767203
0.6665955271656161
0.6913529652153616
0.6347602107029724
0.6260172696411409
0.7330188285562527
0.7503771435311829
0.6629332226743392
0.7106750790189492
0.6832188473117772
0.7062032656066417
0.6417649291917399
0.6255451572070527
0.736326250595033
0.7468787656709777
0.6872743945434012
0.7303352417486761
0.7135655441778932
0.7336419730883035
0.6671747750402263
0.641950934326003
0.7569771568053129
0.7584963522393622
0.721627396009251
0.7597149391015567
0.7460434378216289
0.7640545520035243
0.7000936057823677
0.671932134447835
0.7832006610855977
0.783769610128981
0.7503794615215964
0.7836953262657368
0.7702678198510168
0.7855725704132616
0.7280134257878162
0.7021436118609654
0.8010143983262517
0.80485934604808
0.7747832500707815
0.7993449808258223
0.7946206006995074
0.8038775808923033
0.7567315527483517
0.7298500867948068
0.8169147033806453
0.8204613650285995
0.8018510628453146
0.8179073229454137
0.8173470776539402
0.8241463575612433
0.7849593060677784
0.7596771465995413
0.8300885499554878
0.8336285304572003
0.8262967288837361
0.8329178944297944
0.8418776100937369
0.8416994957324921
0.8146144354065789
0.7887730273992466
0.8383542587341972
0.84176394887572
0.8524377338616016
0.8446649023023733
0.8661887658315179
0.8585940486335345
0.8418861014437078
0.8196436841986858
0.8218560543543425
0.8243270120888639
0.8782299913838227
0.8451655997877788
0.8712411735159155
0.845771499117855
0.8680271762728684
0.8454343183026698
1.1953575689455556
1.1859771698432804
0.8700220244880971
-6.0266493339538165
1.2038490609867019
-5.667352623057152
0.8842393659245981
0.875255699841462
-6.334565808013074
0.8880469942163738
1.2258562923147402
0.8299445801402249
0.8968977355962546
0.8891078457047172
-17.615785262558266
-17.21160510764491
0.9051661783350957
-35.12159384487671
-4.468738512278995
-1.8359358785543949
5.044141457379636
-1.6488041973969505
0.9475108555564481
1.1448920493743602
1.1084044686031593
-7.051114348774615
7.817882453318321
17.063916065723525
0.6602137246093223
0.6505079864371633
1.012902643003023
1.1402270673514228
1.0138508851359127
1.1776628902555135
1.0467147980221416
-4.223605946984185
1.0652831666374225
0.7461634369420334
1.0418872676873199
1.181514572375538
1.0890070293226546
1.0648223288912722
1.01336485676305
1.0191406292307614
1.3324072001550804
1.2536116173210559
1.092697050274082
1.0924265562117284
1.1176896057021066
1.1416038120711354
1.0288937222017331
0.9966812903260357
1.0621190457421394
1.1854074462012254
1.0563983767107237
1.153885847886584
1.06968286660492
1.143256131411752
1.175747267250666
1.1732351681697002
1.1436552602827894
1.1010657139977518
-17.290082897527675
-2.654177447152536
-3.0266257254551916
-13.74970906671801
0.8816672506726109
0.8950885107141194
0.8905593777295998
-13.433759362033705
0.8667753880010646
0.8706407689637455
1.2281971845948547
0.8979911321675038
0.8758904098595006
0.8850664952727809
0.8674949059492971
0.9054636106276057
1.2185106938585268
0.8670641230196428
0.8707066091808765
0.8933166914222173
0.8439614075074393
0.8768319621993375
0.8450482676080432
0.9285706726785441
0.9277929549892096
0.8364138831055905
0.8511210947075905
0.91419118426204
0.8248422351940149
0.8951149483253531
0.8375496938486222
0.8314942838689745
0.8293890430625988
0.8096071397631704
0.82226564777535
0.814860722232752
0.8148376859795976
0.7968876399893514
0.854429858212928
0.881929389103913
0.8794867148034486
0.7895670332805196
0.7970439457186997
0.8815380240647966
0.8347403966108058
0.8720424227850424
0.7677025771074749
0.866498596281757
0.8489168790774729
0.7858709360812812
0.7802897449843256
0.8479467926069935
0.7348928669074286
0.8150170892517574
0.8063030092297601
1.179652387128946
1.188708589523955
0.794450665183517
0.7783909148540389
1.1397216506411467
0.7778365721809504
1.1554656749565548
0.8022946765183561
1.1316965801467795
1.1386976132793427
0.7031738068695716
0.7911980421944697
1.058071033463018
1.0125517641759108
1.0313915515142795
0.9458493633374737
1.1235960311156807
1.0835731122259817
1.0171159546327728
0.9201547434924032
1.1101559471707987
1.1636188589809515
1.0236402744343174
1.117126105134169
1.1615574521645995
1.1607219392279746
0.9669964415759555
0.8612560749759152
0.6908383954687657
0.7782672861669055
0.6116879900127612
0.6056310500110493
0.5597282318584025
0.9439316158177549
0.9306027913430147
1.072839192905282
0.60564386211493
0.6020023330243671
0.6865082966177777
0.6889237075289266
0.6245999165024056
0.49953388078987354
0.4647182653392581
0.6206824875020496
0.652045518688379
0.6421985595690555
0.621825039880052
0.6095626698495795
0.6649862006914713
0.7184050330083455
0.6448589640458943
0.5543000443206564
0.6124271833534608
0.5855282715531827
0.5933680162862246
0.5787314745164189
0.6297379591872527
0.6520764977169362
0.5646253190031396
0.5913201217763754
0.5917299376222092
0.5570354136406275
0.5744267991726282
0.5543688169608523
0.6144680088519913
0.6334168633497986
0.539217596940617
0.5400107052663654
0.5820092606292712
0.5389969147042553
0.5672304954021513
0.5442761316889112
0.6077097284248312
0.6228653381979703
0.5200100346586609
0.5175641202152474
0.5812067354000651
0.5330529989455786
0.5692342836068395
0.544034910865593
0.6085712742410178
0.620295502038664
0.5123285443843859
0.5045647970821243