# vtk DataFile Version 1.0
Tissue data
ASCII

DATASET POLYDATA
POINTS 1593 float
0.0700938 -0.588032 0.830453
0.0528798 0.464943 0.881632
0.210728 -0.740827 0.718777
0.189728 -0.719627 0.738815
0.169028 -0.698214 0.757332
0.148736 -0.676634 0.774375
0.128992 -0.655033 0.789984
0.109667 -0.633497 0.804213
0.0901751 -0.611253 0.81767
0.103414 -0.578802 0.832149
0.135574 -0.569094 0.8330879999999999
0.167318 -0.558881 0.833307
0.199884 -0.547725 0.83282
0.233218 -0.535581 0.83157
0.267243 -0.522412 0.829498
0.301857 -0.508192 0.826545
0.336937 -0.492906 0.8226559999999999
0.372338 -0.476548 0.817783
0.407903 -0.45913 0.811881
0.443459 -0.440681 0.804916
0.47882 -0.421243 0.796868
0.513799 -0.400879 0.787728
0.546103 -0.381031 0.7781629999999999
0.577123 -0.360994 0.767888
0.607397 -0.340419 0.756757
0.63748 -0.318967 0.74449
0.668344 -0.295662 0.730568
0.698065 -0.272188 0.715635
0.726163 -0.248474 0.7001999999999999
0.75315 -0.225004 0.683508
-0.229233 0.741321 0.7161339999999999
-0.203621 0.720092 0.7377319999999999
-0.178146 0.698021 0.757923
-0.152847 0.675302 0.7766069999999999
-0.127935 0.652135 0.79375
-0.103333 0.628655 0.809349
-0.0793194 0.604952 0.823507
-0.05584 0.581424 0.836166
-0.033142 0.558065 0.847446
-0.0111958 0.534986 0.857448
0.00996489 0.512254 0.866275
0.0311904 0.489035 0.874309
0.0706576 -0.558765 0.84362
0.0710908 -0.529639 0.855603
0.0714462 -0.500272 0.866646
0.0717454 -0.469569 0.877153
0.0719848 -0.437556 0.887053
0.0721617 -0.404275 0.896276
0.072274 -0.369784 0.904759
0.0723205 -0.334157 0.912448
0.0723008 -0.297485 0.919299
0.0722169 -0.259873 0.925281
0.0720743 -0.221441 0.930373
0.0718826 -0.182315 0.934569
0.0716573 -0.142626 0.937874
0.0714306 -0.10496 0.9401849999999999
0.0712258 -0.067838 0.941754
0.0710698 -0.0306112 0.942671
0.0707283 0.00732559 0.942948
0.0692345 0.0474242 0.942696
0.0677797 0.0869721 0.9416289999999999
0.0664031 0.125885 0.939792
0.0650789 0.164056 0.93719
0.0638274 0.201404 0.933824
0.0625935 0.237815 0.929716
0.061273 0.273216 0.924902
0.0599366 0.307513 0.9194
0.0585888 0.340648 0.913247
0.0572304 0.372582 0.906481
0.0558617 0.403288 0.8991439999999999
0.054422 0.433929 0.89094
0.0861641 0.456349 0.882476
0.118416 0.44757 0.8824879999999999
0.150255 0.438394 0.88178
0.182967 0.428433 0.880328
0.2165 0.417657 0.878073
0.250775 0.406035 0.874954
0.285692 0.393543 0.87091
0.321127 0.380166 0.865881
0.356938 0.365904 0.859811
0.39297 0.350775 0.852645
0.429052 0.334811 0.84434
0.465008 0.318062 0.8348599999999999
0.500648 0.300586 0.824183
0.533655 0.283625 0.813067
0.565404 0.266551 0.801176
0.596445 0.249063 0.7883169999999999
0.627276 0.23083 0.774227
0.659007 0.211094 0.7582
0.689424 0.191172 0.741233
0.718354 0.17114 0.723473
0.745707 0.151091 0.705157
0.771936 0.132355 0.685426
0.0369344 -0.579013 0.836182
0.00469736 -0.569741 0.840875
-0.0272108 -0.560129 0.844696
-0.0600257 -0.549814 0.847788
-0.0936996 -0.538771 0.850089
-0.12811 -0.526896 0.8516009999999999
-0.163152 -0.51407 0.852262
-0.198828 -0.500234 0.852047
-0.235011 -0.485375 0.8509
-0.271557 -0.469487 0.848777
-0.308303 -0.452584 0.845641
-0.345075 -0.434698 0.841462
-0.381686 -0.415879 0.8362229999999999
-0.415718 -0.397466 0.8303389999999999
-0.448603 -0.37881 0.823688
-0.480934 -0.359597 0.816167
-0.513256 -0.339462 0.807604
-0.546758 -0.317522 0.797519
-0.579148 -0.295237 0.786478
-0.610301 -0.272729 0.774548
-0.64013 -0.25013 0.761792
-0.668534 -0.227548 0.748314
-0.695484 -0.205111 0.7341799999999999
-0.72083 -0.182879 0.719575
-0.744494 -0.160846 0.704759
-0.767142 -0.139919 0.688861
-0.107692 -0.764199 0.718927
-0.0837477 -0.742373 0.737885
-0.0599171 -0.720644 0.755092
-0.0368011 -0.69881 0.770739
-0.0143822 -0.676977 0.784941
0.00723172 -0.655203 0.797802
0.0280341 -0.633571 0.8094129999999999
0.0488393 -0.611305 0.820258
0.271584 0.732464 0.712079
0.250347 0.709476 0.734765
0.229248 0.68577 0.755976
0.208306 0.661613 0.775612
0.187619 0.637142 0.793682
0.167285 0.612502 0.810207
0.147343 0.587841 0.825234
0.127917 0.563289 0.838828
0.108943 0.538939 0.851064
0.0905475 0.514895 0.862043
0.0719747 0.490355 0.872189
0.0205106 0.454244 0.885837
-0.0109236 0.443466 0.889068
-0.0420177 0.432493 0.891479
-0.074004 0.42093 0.893162
-0.106857 0.408747 0.894062
-0.140539 0.3958 0.894169
-0.174979 0.382013 0.893431
-0.210064 0.367352 0.891801
-0.245663 0.351806 0.8892289999999999
-0.281622 0.335377 0.885668
-0.317774 0.318093 0.881078
-0.353943 0.300001 0.875422
-0.389949 0.281172 0.8686699999999999
-0.423437 0.262944 0.861323
-0.455811 0.244653 0.853189
-0.487645 0.225987 0.844126
-0.519461 0.206602 0.833923
-0.552415 0.185675 0.822024
-0.584269 0.164613 0.8091039999999999
-0.614898 0.143518 0.795235
-0.644193 0.122485 0.780506
-0.672071 0.1016 0.765014
-0.698491 0.0809465 0.748856
-0.7235 0.0606679 0.732079
-0.746969 0.040831 0.714878
-0.768848 0.0213805 0.6974549999999999
-0.789375 0.00247761 0.679565
-0.776519 0.0920899 0.6861929999999999
-0.773285 0.0562577 0.692066
-0.755398 0.225717 0.682021
-0.755905 0.186559 0.690214
-0.755041 0.148649 0.697588
-0.75294 0.112033 0.704357
-0.750608 0.0761781 0.709711
-0.725588 0.288959 0.68997
-0.727913 0.248818 0.699446
-0.729407 0.209522 0.70738
-0.72942 0.171021 0.7147519999999999
-0.728235 0.133463 0.72138
-0.726269 0.0966557 0.727114
-0.691282 0.353315 0.695857
-0.695595 0.312519 0.706631
-0.699088 0.272303 0.715708
-0.701167 0.232471 0.724083
-0.702139 0.193436 0.731448
-0.701874 0.155195 0.738049
-0.700628 0.11771 0.743831
-0.652493 0.418077 0.699295
-0.658895 0.377121 0.711406
-0.664435 0.336396 0.721793
-0.668498 0.295721 0.731443
-0.671498 0.255559 0.739924
-0.673253 0.215979 0.747485
-0.673888 0.177147 0.75413
-0.673459 0.139036 0.759956
-0.609752 0.481843 0.69994
-0.618056 0.441814 0.713294
-0.625635 0.401054 0.725145
-0.631672 0.360001 0.736249
-0.636634 0.319164 0.746099
-0.640346 0.278623 0.754914
-0.64294 0.238626 0.76266
-0.644392 0.199261 0.769464
-0.644788 0.160565 0.775385
-0.566523 0.539741 0.69797
-0.575511 0.502627 0.7121919999999999
-0.58368 0.465115 0.725054
-0.591308 0.424391 0.737864
-0.59802 0.38338 0.749356
-0.603545 0.342357 0.759692
-0.607994 0.301605 0.768822
-0.611313 0.261262 0.776866
-0.613542 0.221465 0.783889
-0.614709 0.182231 0.78999
-0.530669 0.560073 0.7085859999999999
-0.54079 0.523097 0.72276
-0.54948 0.48544 0.7362299999999999
-0.557083 0.446666 0.748987
-0.563807 0.405974 0.761159
-0.569748 0.365093 0.771967
-0.574709 0.324284 0.781535
-0.578652 0.283769 0.789929
-0.581532 0.243658 0.797266
-0.583371 0.203963 0.803639
-0.482478 0.615393 0.702487
-0.494337 0.579073 0.7182959999999999
-0.505151 0.542523 0.732605
-0.514627 0.505172 0.746262
-0.522516 0.466662 0.7594609999999999
-0.529467 0.427025 0.771797
-0.53564 0.386761 0.782977
-0.540975 0.346298 0.792926
-0.545356 0.305907 0.801707
-0.548703 0.265732 0.809424
-0.550984 0.225711 0.816198
-0.44254 0.634858 0.710781
-0.455121 0.598735 0.726952
-0.466475 0.561642 0.742283
-0.476848 0.523916 0.756469
-0.485983 0.485461 0.76972
-0.493989 0.44635 0.781981
-0.500983 0.406767 0.793154
-0.506976 0.366932 0.803213
-0.511927 0.327084 0.812178
-0.515677 0.287345 0.82018
-0.518017 0.247463 0.827446
-0.402397 0.652444 0.718104
-0.41512 0.616856 0.7348399999999999
-0.426871 0.580148 0.750682
-0.43773 0.542456 0.765473
-0.447729 0.504041 0.779079
-0.456765 0.465045 0.791526
-0.464832 0.425653 0.802795
-0.471937 0.386089 0.812875
-0.478036 0.346591 0.821802
-0.482951 0.307429 0.829689
-0.485912 0.267048 0.837283
-0.350131 0.701773 0.7058409999999999
-0.362337 0.668296 0.724478
-0.37496 0.633495 0.7416119999999999
-0.386928 0.597412 0.757889
-0.398172 0.56021 0.773107
-0.40867 0.52211 0.78716
-0.418396 0.483348 0.799968
-0.427301 0.444118 0.8115249999999999
-0.435368 0.404623 0.821829
-0.442611 0.365074 0.830897
-0.449055 0.325671 0.838764
-0.453504 0.285682 0.846146
-0.30975 0.716366 0.710334
-0.322528 0.683383 0.729134
-0.334851 0.648979 0.747089
-0.346928 0.613481 0.7638389999999999
-0.358431 0.576878 0.779475
-0.369299 0.539315 0.793933
-0.379495 0.50098 0.807145
-0.388994 0.462082 0.819072
-0.397771 0.422807 0.829713
-0.405824 0.383324 0.839092
-0.413202 0.343732 0.847249
-0.419992 0.303848 0.854279
-0.269546 0.729489 0.713727
-0.282678 0.696903 0.73302
-0.295137 0.663219 0.751311
-0.307156 0.628329 0.768549
-0.318787 0.592381 0.7846
-0.3299 0.555457 0.7994519999999999
-0.340441 0.517703 0.813055
-0.350375 0.479296 0.825371
-0.359679 0.440417 0.83639
-0.368342 0.40122 0.8461299999999999
-0.376361 0.361791 0.854646
-0.38372 0.322008 0.862047
-0.243039 0.709131 0.735857
-0.255728 0.676061 0.754516
-0.267815 0.641912 0.7720899999999999
-0.279477 0.606676 0.788531
-0.290725 0.57046 0.803761
-0.301498 0.533378 0.817743
-0.311754 0.495582 0.830444
-0.321461 0.457234 0.841848
-0.330597 0.418486 0.851968
-0.339143 0.379431 0.860851
-0.347027 0.340035 0.868601
-0.21673 0.68764 0.756697
-0.228959 0.654209 0.774582
-0.240671 0.619746 0.791341
-0.251979 0.584291 0.80692
-0.262892 0.547946 0.821264
-0.27337 0.510841 0.834338
-0.283378 0.473124 0.846124
-0.292888 0.434936 0.856628
-0.301867 0.396382 0.865888
-0.310237 0.357479 0.873989
-0.190646 0.665307 0.776069
-0.202463 0.631614 0.793113
-0.213816 0.596955 0.808999
-0.224805 0.561391 0.8236789999999999
-0.235423 0.525035 0.8371109999999999
-0.245645 0.488017 0.84927
-0.25544 0.45047 0.860156
-0.264767 0.412502 0.869798
-0.27355 0.374157 0.878265
-0.164895 0.642363 0.793903
-0.176329 0.608499 0.810067
-0.187378 0.573736 0.825056
-0.198079 0.538163 0.838825
-0.208438 0.501894 0.851345
-0.218439 0.465044 0.862608
-0.228036 0.427721 0.872634
-0.237154 0.389982 0.881477
-0.139531 0.619015 0.810177
-0.150699 0.585041 0.8254549999999999
-0.161462 0.550257 0.839545
-0.171901 0.514766 0.852411
-0.182045 0.478652 0.864041
-0.191841 0.442016 0.87445
-0.201216 0.404919 0.883678
-0.114775 0.595384 0.824942
-0.125664 0.561388 0.839334
-0.136135 0.526674 0.852528
-0.146383 0.491318 0.864517
-0.156322 0.455395 0.8753029999999999
[...]
CELL_DATA 3055
SCALARS gaussian_curvature float 1
LOOKUP_TABLE default
0.910979206985542
0.922937962725541
0.9025195033309471
0.9056895846402246
0.9125060050225875
0.8751423265598732
0.8867071774338176
0.8767743072682528
0.8763804024021982
0.8553546385143919
0.8497510024469923
0.8384230180561056
0.8554317043083086
0.8406232978543371
0.8375302823389763
0.8574812288774464
0.8381198457265289
0.8333529499133039
0.8768164261708571
0.8580224353174393
0.8288292807997684
0.827300837555797
0.8286905717846973
0.8307974299161671
0.821832517421077
0.7871251675219293
0.7549029401831393
0.7508561515546125
0.7815499356494311
0.7496882112238296
0.7552968690901988
0.7329992771022462
0.7294974773673469
0.7542073594049274
0.7222350375195548
0.733612240064273
0.7822153427177863
0.7562942979794759
0.72793178513214
0.7248291216788291
-0.7257769553292635
-0.39848882736792424
-17.281779726769667
0.8893319094717665
1.2214446609753047
0.8991959881315077
0.904020611673707
-15.668519197165088
-30.279313111163244
0.8920276282851117
0.8901792930886622
1.2632465939430615
0.8305349647686832
0.8968067043725826
0.9410610504224822
0.8932806033664007
0.9327103258741012
0.8863532943390774
0.8914382969113478
0.9411915699985012
0.9459530642174825
0.8794373235379882
0.9279318574652095
0.8946250272105863
0.9036898386301073
0.8740339870665186
0.8774238568614259
0.9574474776395017
0.9623564656244122
0.8853584629473643
0.9280260100012145
0.8800250060689829
0.9136277417033124
0.8600422237059571
0.8639054514977096
0.9103822267275623
0.9155616755307472
0.8654016346671073
0.8986104654353823
0.8575299834488115
0.84683711560928
0.9246775835803562
0.9220510765746339
0.843511331937076
0.8925567692842116
0.8183919146465783
0.813621844643767
0.7998304117441559
0.8108068647875529
0.8161066275370255
0.8165669640916198
0.7862649645044049
0.8004555123189344
0.7839449456313307
0.8357635835453971
0.7705786168006292
0.7765590141813548
0.8080204864009319
0.772022394050808
0.7919172932155594
0.7724297675530392
0.8280087972357972
0.8396404426075772
0.7559122415030297
0.7521484453797767
0.8012021990341289
0.7615561913726046
0.7858639284955995
0.7657054464965952
0.8230525894153946
0.8337559944316904
0.7436799796530782
0.7384434032857345
0.7979426711301607
0.7545281279387036
0.7832099468714742
0.7599538856790213
0.8203398985660575
0.830111546312762
0.734974265059482
0.7282753718978474
0.7966903694333185
0.7496403576024622
0.7817383802329578
0.7579444295945543
0.8202727089491022
0.8291895138231545
0.7304563031865842
0.7212159683839218
0.7971069943124469
0.7479455474199642
0.7834703194136969
0.7581028231596177
0.8210278063071745
0.8292415317434689
0.7277045659190977
0.7185193936778098
0.7995200077389291
0.7494484145039974
0.7865455363204437
0.7618414393395911
0.8222631840374682
0.8301343077069636
0.7293747074287026
0.7177881345834565
0.8029407577311878
0.7536097261679361
0.7913647249401228
0.7667377903577235
0.8257967518412572
0.8321447067290522
0.7331633413811652
0.7213213474775255
0.8072969499852825
0.759616564694016
0.7966444502052901
0.7735909994964228
0.828853275513302
0.8357770445782118
0.7396167273761616
0.7262915682530984
0.8127477104242529
0.7668499092194666
0.8018033024033273
0.7789589519074083
0.8328490031310689
0.8383020684401257
0.747195729909852
0.7339369828689537
0.8125497345849748
0.772122200432626
0.799132583331162
0.7815493996747321
0.8331564633135222
0.8425113238386908
0.7556730820753359
0.7428556542405034
0.8093623262557257
0.7765658242232079
0.8019611297953548
0.7867478114192668
0.8278395647309591
0.8382165505349428
0.7628996650919874
0.7514341221862215
0.8134113080592085
0.7872244611018133
0.8116573787458263
0.800683850164519
0.8242081500597722
0.8312352102711519
0.7756430197719195
0.7615002109581525
0.8203191637679788
0.806007712154075
0.8241190911068058
0.8207811680742093
0.8142586636556799
0.816393720634091
0.7952679953458723
0.7783626920264228
0.8161297215280503
0.8290427067105367
0.8209586894922246
0.8372095977073075
1.152217327926538
1.1541461973929945
0.81912457992583
0.8001233244813
1.1481195855531248
0.8442413262202639
1.154403974009354
0.8342748064614103
0.8390369489479406
0.8479636592855281
0.8395888266165046
0.8226389713188416
0.8459505440415015
0.8404061205923139
0.8312000369147047
1.145784781013461
0.8533612799241728
0.8425774661895097
1.16727715628869
0.7780119801907137
0.8658100215199596
0.8572728055765892
-14.161317034070938
-13.768747990832939
0.8691138886599821
-25.151180879025652
-2.2740754931084624
-11.40095413564502
-15.494499726136265
0.8917584081074369
-8.233065795573888
0.8949583776474156
0.8970128165026492
-12.326157725355605
-26.241906006534784
0.8923785151543419
0.8948866147191017
-17.098518070767533
0.8874769549281719
0.924320626644787
0.8802908391015596
0.9150800719629409
0.8798226781839689
0.8879242079501174
0.9156416705763097
-7.977118414759474
0.8645034555212843
0.9082701388106026
0.8739676119990315
0.8829450624269685
0.8598607810079164
0.8679938878439886
0.9321410664673718
0.9302720435512328
0.8592767726448635
0.8949538799784384
0.8485690297125019
0.8752686866181398
0.8365068870079101
0.8465550518487102
0.8803456617962695
0.8922077719015689
0.8270427314000233
0.8540654624310322
0.814809869003222
0.8151329431285933
0.8219533635736141
0.8207097762491395
0.8797843018660461
0.8863793078709847
0.7980915886106945
0.8285870628696533
0.7816927404852262
0.811865140618814
0.8046554338811235
0.816284346447242
0.8556292063949837
0.8678939260889373
0.7646004294485538
0.8271151452942465
0.763715517205453
0.796057832917558
0.7526721284735973
0.7763282847806989
0.8497511075030695
0.8615432463529673
0.7480769222113379
0.8085345940854052
0.7518298765693245
0.7799452327312869
0.7311763878028501
0.734886681822009
0.8324156464551966
0.8425748474961725
0.7381637690262566
0.793975274366824
0.7416202146141435
0.7693163637927487
0.7259868676471681
0.7227524407817483
0.8201248321933878
0.8299758429276423
0.7338287236058632
0.7922186568792868
0.7143615518445081
0.7099761414737
0.8067374499793151
0.8099847147193409
0.704417824742258
0.7911589039453163
0.8098426754103292
0.783175753780526
0.7863466903918612
0.8065017024683814
0.8168774508152488
0.7605034886207231
0.7655580354646283
0.7386355814410004
0.7405191916735703
0.7571259608899377
0.7764572531077927
0.7610701220035943
0.7167740269241395
0.7195788849882365
0.6964798345622529
0.6974010823937802
0.7144136155430704
0.7328976423291459
0.7164321211900281
0.7328845144143277
0.6740773198941941
0.6746246134652615
0.6547784134778751
0.6544044592174154
0.6711563463611006
0.6911984496480903
0.6716839206422889
0.691313625772599
0.6312956251706943
0.629260491620019
0.6133134055100422
0.6116522262198266
0.6280465445853464
0.6486083593594338
0.6263362312212248
0.6485395059956487
0.5883056539576412
0.5847162497648324
0.5713867521902062
0.5694585272876129
0.5844823035849412
0.6062409745519943
0.5817926989199262
0.6058044149761265
0.5461752579471751
0.5405353790145295
0.5312940373177228
0.5275823832876703
0.5419550363217931
0.5633431801921241
0.5374722924973243
0.5634718899255018
0.5054641584680106
0.49728011374283887
0.49266506168486146
0.48819267098974206
0.5008765879570894
0.5224862451814195
0.4945016289955979
0.5217408120232242
0.4663909155622664
0.45697014701782895
0.45593804988952824
0.45098967204021023
0.460350460860694
0.48203703647236784
0.4529225716749322
0.4813666108996043
0.42976662658308074
0.4192572434309897
0.4220871390939416
0.41652613379116854
0.422814735727547
0.4429457043324221
0.41510714439508284
0.4427919976614066
0.3965298282392299
0.38481871154434083
0.38973628199700394
0.38358617060488787
0.3887122489116841
0.40731766891086196
0.38076527583646946
0.4083225990473903
0.36219569282822106
0.3502264371150697
0.35232524135356147
0.34650609703252616
0.3533379079361145
0.3730609177773516
0.34602807248123807
0.37533437026318495
0.3236711007740826
0.3116775329974336
0.3174476094677672
0.3112731860121535
0.3161162905400002
0.3359126462273725
0.3097273672194933
0.3403575666207542
0.2953088250559442
0.28893910295541286
0.30028414413432303
0.30008884548940534
0.2869677085417972
0.3015516827195378
0.291351729964136
0.3117356472429363
0.28537503252924074
0.2572910990726729
0.275152415309036
0.2472637804973858
0.27237452240736304
0.27894251749829835
0.24268949041642307
0.28789986384187866
0.2663923420765605
0.22588249288006124
0.29362549555275047
0.28100428116790144
0.27910838588156495
0.27486794899216277
0.25381117683750765
0.2605908557985824
0.31373491671474585
0.293712648663649
0.33461499508648473
0.32721394142023685
0.29675993774517034
0.28936656038817943
0.28608317561824825
0.3013034920799471
0.3261119451512777
0.3121304482879051
0.3476809702016646
0.34110052700453974
0.31763045638550896
0.30915852735114047
0.31074964018586226
0.3182036602727933
0.3488262630182855
0.3359978584139291
0.37179177186526463
0.36554381045803297
0.3410887945605101
0.3314620129781204
0.3332212057831309
0.3369430662716987
0.37632911472200653
0.37143872131873834
0.3977267594659021
0.39908432746986555
0.3691601269345648
0.35688531562004744
0.3682912235305149
0.35961966003901136
0.4061933419343586
0.4062432988000712
0.4245975307958983
0.4232899196576474
0.4023394388413767
0.38670386858547834
0.4018950329324662
0.39158856381403706
0.4386080654784333
0.4429948745639872
0.4585011025363469
0.46419552276015164
0.43875364236285663
0.4208892045873397
0.4406149491670529
0.4165617283931082
0.4793043947377358
0.48810302209959067
0.5008706378552321
0.5039748449932823
0.4781695889313515
0.45751187361438583
0.4854525328024085
0.4591651080660353
0.5221118936504648
0.5273778808136644
0.546496052705477
0.5486578327306264
0.5201014934862283
0.49772543188461127
0.5243357084290152
0.498282183311451
0.569098836998866
0.571594117476919
0.597396061032593
0.5977295614854965
0.5647979698818646
0.540184785424239
0.5671693152157848
0.541190858084843
0.6208943915674641
0.6198188310544853
0.6557270249803049
0.6543179640144228
0.6140280176054593
0.586228819953587
0.6124530695918338
0.5859389977617107
0.6852267074377856
0.6803158467370042
0.6741008823413751
0.6377348259218898
0.6703015099317169
0.6369378657464839
0.6914057045944659
0.6920299668577847
0.720407739201878
0.6954170457894453
0.6784164759900704
0.741624528750279
0.7569159681872224
0.6948162576498375
0.6554937863094785
0.672112066147915
0.649790164606931
0.7189574724092993
0.7407750500973084
0.6357436329919598
0.6825963618239355
0.6355444972557269
0.6616254688993707
0.6368955058721462
0.7110062888802429
0.7246632079636843
0.6169842954721101
0.6114798095057955
0.6765904370119263
0.6247654285180254
0.6566417855638779
0.6295467400972012
0.7060246825588081
0.7194696415025599
0.604027669480084
0.597597545050588
0.6748612750001608
0.6188374041272771
0.656837542230911
0.6279087168247038
0.7049764538390583
0.7161912099496571
0.5980031630596911
0.5879747399916739
0.6771240862254053
0.6183449918787859
0.6599768120575598
0.6301265431171473
0.707726456178098
0.7175550910225013
0.597000503983544
0.585729987861876
0.6820517986512005
0.6217517096637589
0.6671198888588247
0.6366700688117954
0.7129051731602362
0.7214325565192881
0.6003822293691046
0.5874125749272512
0.690714693471015
0.6301330267312313
0.6769224912539124
0.6467906445611579
0.7208910872785652
0.7281496571754105
0.6084773243181215
0.5936448861040314
0.700645092594344
0.6420288156287698
0.6889725326052301
0.6604881023324104
0.7296100754025253
0.7360638678696437
0.6210318462825207
0.604137972801799
0.7130609541499027
0.6574353793626392
0.7047344622305567
0.677593317716113
0.7406611753820351
0.7455377366455438
0.636725955740109
0.6187817093636312
0.7287952054734651
0.6759649743454174
0.7204584387805517
0.6947693521669478
0.7534426741291509
0.756982152118375
0.6547212778292861
0.6356401975774516
0.7382338273479865
0.6924145970718095
0.7308241857435314
0.7106940420809584
0.7618534263559016
0.7687255064441525
0.67517497860155
0.6562860371805569
0.7488176157709493
0.7127951453226595
0.7488048969757233
0.7329125701900066
0.7677278651591333
0.7733540341396306
0.6958694716278269
0.676528749915866
0.7671736748870126
0.7378060947624699
0.770680972552337
0.7572057192135113
0.7819993722675813
0.7825408437444763
0.7221437991290669
0.7003246008617707
0.7869072375808894
0.7653681330636853
0.7936954789877738
0.7856316278093955
0.799724005385748
0.7983234377377646
0.751722204738524
0.7278974952549468
0.8085490304463814
0.7943643920415047
0.8147333062614219
0.8086125190349236
0.8173800766861423
0.8153432930323932
0.7798229359173978
0.7574442433601274
0.8232095207868309
0.8142835584224597
0.8305667292330522
0.8277615540951795
0.8228312988688089
0.8231861305831609
0.8044108889053284
0.7841983933936855
0.8337356875742044
0.8360748243805443
0.8264060551621006
0.8315503671063131
0.8256679045035281
0.822120724244354
0.827143029780248
0.8089570899777521
-7.058500758019599
0.8288425446774573
-6.768667580442343
1.1135314103105005
-16.69848151019411
-8.821642480083087
0.840399248757936
0.8341752765864956
1.1317673115453992
0.7713025613078379
0.8540412730604117
0.8473620759059916
-14.227848651727406
-13.853181338462146
0.8682438360881106
-28.131910479955607
0.816062602300063
0.7981382145260894
0.8020902618241286
0.8235302311515915
0.8413617852048252
0.7834969248661676
0.7973885048582781
0.7751425899048274
0.7850821225988986
0.7721917117947383
0.8131555790694421
0.8253249648868213
0.7661090581116017
0.7775527863584493
0.7544165556425557
0.7559207511953321
0.751153168005875
0.7488814867276714
0.7849690066955819
0.8082654171471954
0.7374005874151744
0.7694711216575416
0.7406421939496743
0.7712085326392653
0.7298832831416429
0.7319433612632974
0.7947851651138512
0.7886510149887743
0.7415503959536103
0.7845307563933568
0.7473908625374052
0.7598048842875607
0.7144842321170066
0.7060587258395391
0.7990588749308439
0.811050694633062
0.7284968388796602
0.7621302465322037
0.7268767084980774
0.7480960944004653
0.7133496207641202
0.7051774805852614
0.7856757829583708
0.797878539251215
0.7151352612135757
0.7587515878226414
0.7209098157948308
0.7433067565015088
0.6943662151287082
0.6909604442976698
0.7827774725876913
0.7956675155916821
0.7081989903570655
0.7546865795538893
0.7153750303889136
0.7394656788790596
0.6868719820523552
0.6788137614052531
0.779150391721126
0.7917964534337952
0.7027917328714459
0.7520237823382647
0.7124762407156208
0.7376176416922936
0.6810936536728633
0.6723499428856208
0.7768984535841633
0.7888041622921947
0.7004809457425578
0.7509903661056001
0.7118792906371952
0.7372473100235646
0.6773086289633621
0.6676058447378423
0.7755896429829763
0.7870915898155684
0.7007241285623815
0.7514590863764082
0.7112026105321865
0.7365695489598437
0.6779303638650334
0.6659132091606512
0.7753524235222555
0.7857399240467882
0.6989807540931445
0.7462561856730724
0.7061780356573959
0.7280865288096665
0.6775827728031183
0.6670108645448121
0.7716309700122741
0.7858376704448928
0.6952261194316736
0.7370182972036147
0.7061898771449355
0.726073561764606
0.6763290527566501
0.6658829876923461
0.7620654801272226
0.7785084960724762
0.7017528485335496
0.7412840571338474
0.7171100176468298
0.736757541627457
0.6828770160182953
0.6684169779546578
0.7624222550037483
0.772258942558115
0.7197011842776545
0.7550687719145903
0.7402350282536994
0.755955091910008
0.703521448882989
0.68205444973691
0.776526724203433
0.7793536917862007
0.7467517545359671
0.7755613400523805
0.7638853264624522
0.7769748483225571
0.7288417685188591
0.7061453068419258
0.7937286220730024
0.7955803262194727
0.7672471318347713
0.7910185375219947
0.7809956878714268
0.7916775716985454
0.7506852240228556
0.7294134326334285
0.8051634588823946
0.8092870517035791
0.7850643000915796
0.800809791870245
0.7983181502266921
0.8033817581782388
0.7714646011997481
0.7508340811676796
0.813894335438009
0.8189070366267093
0.8044129922478922
0.8119824319955602
0.8147515388102504
0.8172573706063717
0.7930757892887752
0.7733812483757436
0.8211709641366693
0.8256548338871119
0.8233111535531872
0.8231150477049198
0.8333725707672314
0.8306706331228428
0.8155224713905844
0.7956256536885307
0.8266133074642794
0.8299441625068404
0.8435958313243235
0.8314799867280376
0.8518095268887735
0.8423956199368764
0.8369841247074082
0.8189721819877135
0.815727487312141
0.8184163934663058
0.8630806681887895
0.8339306548489109
0.856076359968285
0.8363402535803037
0.8571876042207931
0.839304756303862
1.1278851764221574
1.120597642094226
0.8583686549745643
-6.663026878192198
1.129050656565138
-6.372608770213644
0.870469249811551
0.8622838908372756
-6.969069097488091
0.8242525558576572
1.1513003363487528
0.7539677080459087
0.8850811581861245
0.8749320732394963
-18.426037741333772
-18.019839106980996
0.8939471642360565
-35.922187407101994
13.63265029881762
-0.9862783659985845
-12.916775771350347
15.521934934713958
0.8939362005255971
0.8948237669847419
0.8857536976125848
33.418904481792566
-11.040348256193438
-23.9252548499255
0.927754173723934
0.9239671223566602
0.9283836358585597
0.8808012976314586
0.9212614206282099
0.8827491517732662
0.9273983760160774
18.79080805422087
0.867536365912285
0.9063067390917481
0.9269222588776966
0.866626059748806
0.9039928282471936
0.8822088979732468
0.9451296227968091
0.9384835247048403
0.8433689857392854
0.846227146044572
0.9136239912592286
0.8658470099938795
0.8920102061533085
0.8660171551619065
0.9352041652599892
0.943780366167067
0.8538359927282879
0.8469408066981345
0.9094259750495834
0.851031930832213
0.8885597214744485
0.8561587282484799
0.9107965158536244
0.9149609209581102
0.8380297215237879
0.8410039285878899
-11.340667969466823
-2.1690071239972952
-2.560581123263746
-8.272063166191515
0.899939308827062
0.9017808162711978
0.902122445820247
-7.978218881352006
0.8102726503483115
0.8906404428101652
1.1925477835978655
0.9046612917987892
0.8911994974414191
0.8994480769239598
0.8856446530175404
0.9042850781376727
1.1952488874495926
0.8856709241712963
0.8872950065332276
0.8994624698798224
0.8711500026844099
0.8802931105799954
0.8657840672910023
0.9102328779320773
0.9098422713150983
0.8660731132119452
0.875039190274953
0.8796203575008282
0.8512616143225565
0.8566981500616049
0.842848450172326
0.9085760595990454
0.9200192207304674
0.8448595812701989
0.85430514476618
0.8720868336146155
0.8274218566029689
0.8464692642960779
0.8156539871737101
0.8825197012481566
0.8960867197933631
0.8222642880305597
0.8312888485475596
0.8466066794682263
0.8009313968273046
0.8139916819575876
0.7991316764390337
0.8745095708542223
0.8848050233156151
0.7976496769910328
0.8072146987650293
0.8295343796507324
0.7873697781300497
0.8038392689899978
0.776534672987869
0.8310984036342283
0.8434585973270794
0.7725497916582238
0.781029970130936
0.799039602741329
0.7634131157194168
0.7704856227521666
0.762163731732383
0.8229601486745045
0.8293238389066693
0.7573158735212855
0.7556174443179118
0.68062379969365
0.6707143429991687
0.6731689091078327
0.6485769871478534
0.6545172920361297
0.6398348267706315
0.6925775237856328
0.6329022923236653
0.6518948932993233
0.6242584091729433
0.6287104172385621
0.6157563983776801
0.6670688700816357
0.6890998834962422
0.6049184596221948
0.604820182395695
0.6342980087997893
0.5979638648953476
0.6179151134942357
0.5945349884506759
0.6665841724307979
0.6761705576518832
0.5853878682363458
0.5838404521679299
0.6284851125375837
0.5834970832642354
0.6067535056902046
0.5851456014604162
0.6543729416197326
0.6760891062073933
0.5621241054643906
0.5605860139918293
0.6186187314804932
0.5717851892316648
0.6005367804173947
0.5753111423983546
0.6474310032607509
0.6614536065526113
0.5526947890968066
0.5446822235257132
0.6146617858340071
0.5637075576035211
0.5973003552022315
0.5715717649907854
0.6442639106915918
0.658951177055237
0.5430193336089383
0.5355325182689137
0.6142079894681425
0.5608395301770059
0.598346539357114
0.5707066702774235
0.6435050866540183
0.6561995772456919
0.5394306009557429
0.5294746117749397
0.6165187542114304
0.560769649353315
0.602203014407217
0.5740937786287922
0.6464144237191132
0.6575393060506726
0.5392280133173688
0.5277561050202142
0.6222495921551157
0.5663259648467276
0.6102528796779197
0.5824384881479564
0.6507677072862018