# vtk DataFile Version 1.0
Tissue data
ASCII

DATASET POLYDATA
POINTS 1593 float
0.0675112864309192 -0.5829960171628342 0.8097652828031561
0.0517850451359336 0.4657601514600477 0.8834944704446496
0.200534196781776 -0.7199376823170976 0.664536429992346
0.1807339742848621 -0.7014892285552907 0.6894823995143059
0.1612174495050866 -0.6826110762163984 0.7128770006122288
0.1420554133006006 -0.6634277503937385 0.7347317986307829
0.123308271952515 -0.6440560325198319 0.7550747658318772
0.1050257502076038 -0.6246030843521035 0.7739479041847752
0.0865301324961713 -0.6043707249280571 0.7920902543719399
0.0996215127323728 -0.573593273632616 0.8131598444421743
0.1308991475402188 -0.5637754854370507 0.8155891876618978
0.1618664804023024 -0.5534068143937597 0.8171312970166578
0.1936735410882276 -0.5420750446223187 0.8178072859404261
0.2262410763200416 -0.5297424350767778 0.8175276285179472
0.2594715802380064 -0.5163794243467719 0.8162046435109216
0.2932496544372753 -0.5019663583740519 0.8137549730893995
0.3274425767632442 -0.4864952994121512 0.8101022731897289
0.3619015288901032 -0.4699716989147748 0.8051800491914863
0.3964635919988903 -0.4524157954588467 0.7989345061642471
0.4309545126623167 -0.433863617789644 0.791327255075599
0.4651921074403632 -0.4143675277297084 0.7823377229067665
0.4989896681686462 -0.3939965570689623 0.7719652888158323
0.5301885497877481 -0.3741277313560986 0.7609735389697184
0.5600637971937384 -0.354070176567998 0.7490745343721892
0.5891345565156691 -0.3335040275101067 0.736099686109732
0.617862588151517 -0.3120731399495967 0.721803663205826
0.6472386154322425 -0.2889068928644102 0.7055183028166949
0.6752714620917742 -0.2654881849297065 0.6882311474909181
0.7018646925946177 -0.2419431179438787 0.6700622981695742
0.7269469077676552 -0.2183940911165294 0.6511393338750197
-0.2177580042884226 0.7196590630157479 0.6593968106912236
-0.1937582354033616 0.7012403472135196 0.6861901702059563
-0.1697544345378055 0.6819333814924974 0.7115424046688235
-0.1458661139040303 0.6618716803078932 0.7353883486231388
-0.122205342276819 0.6411926583903788 0.7576868459426185
-0.0988747542234877 0.6200340842881454 0.7784196755178466
-0.0759660224347445 0.5985308108760917 0.7975898318269972
-0.0535588629826493 0.5768119504132452 0.8152192686082657
-0.0317205530959101 0.5549985750502883 0.8313462861291107
-0.0105058726006403 0.5332019369439135 0.8460227630701034
0.0100428402191709 0.5115219389664851 0.8593115265266754
0.0306930311114624 0.4891722197815765 0.8717469911811523
0.0682848913568042 -0.5553544813729654 0.828905510135734
0.0689664222443999 -0.5277289028394403 0.8467084323408832
0.0695703315386421 -0.499687867947206 0.8635072061292858
0.0701160782835321 -0.4701611369544898 0.8798910211316089
0.0705950911601341 -0.4391521076972772 0.8957348359734181
0.0709986689593764 -0.4066829055618038 0.9109063478752252
0.0713181896266582 -0.372796023319469 0.925268547252643
0.0715453398979154 -0.3375559326862884 0.938682578491196
0.0716723670198662 -0.3010501892343873 0.951011065961328
0.0716923435053047 -0.2633898228694716 0.962121833999367
0.0715994319347073 -0.224708885175401 0.9718918698311156
0.0713891352942895 -0.1851631564567741 0.980211318602585
0.0710585248341983 -0.1449286332755944 0.9869872161018484
0.0706370165855342 -0.106655854084296 0.9918837166829492
0.0701206243475891 -0.0689095128998395 0.9952555542089948
0.0695035092866065 -0.0310641885597425 0.997197928182569
0.0687726478100366 0.0075126007633473 0.9977040716351188
0.067888456333872 0.0482911436038375 0.996623518511248
0.0669013181725957 0.0886002963692523 0.9939179919432178
0.0658196068121552 0.1282529554720741 0.9896549296384568
0.0646526955549729 0.16707970985723 0.9839213249932632
0.0634106768082091 0.204930853251422 0.9768202421637268
0.062104064901218 0.2416782151844614 0.9684670406555556
0.0607435095846101 0.2772161554252342 0.9589855141332552
0.0593395352409843 0.3114616899716778 0.948504151845283
0.0579023152671572 0.3443538552328026 0.9371526902330566
0.0564414846229455 0.3758525063526614 0.9250590543813172
0.0549659744480343 0.4059370453361243 0.9123465987202996
0.0534231667806056 0.4357485440290465 0.8985815922586827
0.084168566845079 0.4569372910905855 0.8856077438204835
0.1157302283055876 0.4478138269903201 0.8867054875831868
0.1469963018514489 0.4382599921370402 0.8868470138286563
0.1791286459348079 0.4278991677780585 0.8859979796908938
0.2120489809983162 0.4167041591955167 0.8840642941695854
0.2456605428897785 0.4046550645907361 0.8809547986860073
0.2798483963886198 0.3917406490540964 0.8765839638677899
0.3144799554175424 0.3779597755689241 0.8708748076813368
0.3494061661072944 0.3633227006713405 0.863761939802308
0.3844634658517475 0.3478521188508033 0.8551945835615313
0.4194765237046559 0.3315838592607111 0.8451394016484854
0.4542616323090366 0.3145671874976764 0.8335829656098147
0.4886301060911892 0.2968649418213456 0.8205339252729145
0.5203847823251779 0.2796687740676821 0.8069364488146635
0.5508201444865513 0.2623732325992913 0.7924114635313646
0.5804642963520265 0.2447008123891213 0.7767483844550575
0.6097889030982203 0.2263471249017701 0.759655444129638
0.6398088192613322 0.2065735223023632 0.7403513456110804
0.6684915868962241 0.1866501105759956 0.7200171719517021
0.6957373031406238 0.166682018024226 0.6987892799277684
0.7214712164497389 0.1467704093779684 0.676810965453906
0.745643129809279 0.1270107190802313 0.6542288865406766
0.0358264140179148 -0.5748597391381941 0.8175672766396123
0.0048164956630587 -0.5662784885308926 0.8242998997795957
-0.0260300339396076 -0.5571369513294746 0.8301125630352841
-0.0578647610810981 -0.5470686035233713 0.8351853923186634
-0.090623044696106 -0.5360328474643881 0.8394189204403936
-0.1242216021226052 -0.5239965327136727 0.8427129759682924
-0.1585584564548542 -0.5109356898605718 0.8449691831954552
-0.1935130582085703 -0.4968373531893758 0.8460937002002686
-0.228947044394872 -0.4817012730068954 0.8460001917758317
-0.2647057666550496 -0.465541383520529 0.8446129231274997
-0.3006206170813526 -0.4483869069643516 0.8418698178531758
-0.3365120450593843 -0.4302830239869381 0.8377253116988567
-0.3721926205925843 -0.411291338956909 0.8321529356209602
-0.4053665336288891 -0.3927004472165861 0.8256085294347916
-0.437362590979789 -0.3738711666194294 0.8179840472720279
-0.4687304109859077 -0.3545048491703532 0.8091847382886956
-0.4999747985716989 -0.3342645389701846 0.7990320489129467
-0.5322025293853914 -0.3123212547177665 0.7870027268775422
-0.5632485723785556 -0.2900753857214882 0.7737971735194907
-0.5929959928643846 -0.267648797936678 0.7595207486037198
-0.6213517533976154 -0.2451606261637714 0.7442896706678322
-0.6482466050014429 -0.2227250277460485 0.7282276681459269
-0.6736346889657523 -0.2004489336713248 0.7114624468666048
-0.6974924240346799 -0.1784302132472476 0.6941223176633213
-0.719816756568129 -0.1567563398657135 0.6763331601420061
-0.7406229423206042 -0.1355035582458471 0.6582158279597029
-0.1014309203766497 -0.7442180515625102 0.660290321134782
-0.0786985721424413 -0.7254810340321318 0.6838278727698687
-0.0564014536656075 -0.7061968604220269 0.7058654499580428
-0.0346153470982522 -0.6864987648751951 0.7264065630779466
-0.0134038069124838 -0.6665139395194137 0.7454720590326447
0.0071818397215833 -0.646361383928795 0.7630976294483924
0.0271023859557998 -0.6261500253380439 0.779331420339728
0.0471025931749815 -0.6051534436560836 0.7948141972730672
0.258380060102339 0.7102162335519329 0.6549531485308886
0.2388707014302978 0.6900454410369474 0.6833115904332436
0.219298386590467 0.6691209557703844 0.7101601130803965
0.1997629467665458 0.6475843991381832 0.7354429207464939
0.18035801470073 0.6255774360031796 0.7591282327403238
0.1611694055157256 0.6032384427428279 0.7812067813832598
0.14227393362069 0.5806996390720419 0.8016897061425476
0.1237386671171748 0.5580847641759634 0.8206060257272486
0.1056205596302922 0.5355072883528769 0.8379998994535879
0.0879662044709762 0.5130688799524254 0.8539280103717224
0.0701205704326522 0.489954938509603 0.8690230482800252
0.0203734681306211 0.4556708255850079 0.8900151760179214
-0.0103524235715713 0.4453108238964786 0.8954161997008846
-0.0409002124904603 0.4345298552013256 0.8998282798472826
-0.0724096562345173 0.4229056088770062 0.9033760860691308
-0.1048151400178309 0.4104137468079064 0.9059555860920316
-0.1380326394708328 0.3970379562238354 0.907463131143378
-0.1719597145035094 0.3827713175675766 0.9077981739738452
-0.2064756795542717 0.3676177217916996 0.906866234691876
-0.2414424071776805 0.3515931265792201 0.9045820823866528
-0.2767058928021919 0.3347265307891214 0.9008730005247831
-0.312098606039013 0.3170605700860039 0.8956819644260614
-0.3474425201907105 0.298651691240447 0.8889705544019041
-0.3825521826700407 0.2795701599333993 0.8807215720780416
-0.4151703010914589 0.261096058207195 0.8715714392797348
-0.4466062436869759 0.2425722425478603 0.8613209764312011
-0.4774006711495505 0.2236999907288751 0.8498334366340189
-0.5080484836249953 0.2041557258811825 0.8368838298367568
-0.5396323255563014 0.1831591604490071 0.8218357696719261
-0.5700284475741055 0.1620629097842141 0.8055831979802739
-0.5991233823183786 0.1409763380314268 0.7882477303619132
-0.6268274447155316 0.1200038743307265 0.769961302246718
-0.6530745632574393 0.0992432612973163 0.750862538965003
-0.6778218222889685 0.0787838352528928 0.7310929442420817
-0.7010483020081424 0.058705214703222 0.7107933065803765
-0.7227532959707054 0.0390764567376253 0.6901005099217786
-0.7429540744576498 0.0199556619672374 0.6691448526087219
-0.7616833982476736 0.0013899489681858 0.6480478905558239
-0.7500193119434563 0.0881867540884498 0.6556105858147584
-0.7469951481847951 0.0538243416152757 0.6627471073188642
-0.7289274301130111 0.2190169048131323 0.6487111292869686
-0.7298776151742813 0.1815697077444425 0.659122843380335
-0.7296730580056832 0.1448217450090125 0.668384288752309
-0.7283854876933059 0.1088589483449351 0.6765645672043878
-0.7260728796236838 0.0736785464260012 0.683759012426168
[...]
CELL_DATA 3055
SCALARS gaussian_curvature float 1
LOOKUP_TABLE default
1.0479783160946095
1.0479783160943539
1.0479783160948484
1.0479783160945697
1.0479783160943303
0.9994188184906521
0.9994188184898467
0.9996476634468585
0.9996476634463086
0.9994188184905861
0.9996476634473828
0.9996476634470778
0.9994188184905841
0.9996476634470466
0.9996476634473234
0.9994188184903736
0.9996476634473539
0.9996476634473827
0.9996476634465914
0.9996476634471418
1.0479783160943221
1.0479783160945997
1.0479783160948684
1.0479783160948726
1.047978316094593
0.9994188184900785
0.9994188184909185
0.9996476634476728
0.9996476634471099
0.9994188184906218
0.9994188184909103
0.9996476634471008
0.9996476634468163
0.9994188184903461
0.9996476634470933
0.9996476634470928
0.9996476634465423
0.999647663446539
0.9996476634473862
0.999647663447105
-1.2101652022788112
-0.9396773751181
16.100824510768547
1.0003288849538325
1.2708167121142941
1.000404198422504
1.0004041984222543
18.311287818487695
35.720300765852585
1.0001976712796325
1.0001668917661386
1.2706854984400935
0.7430926419535528
1.0003311199124476
1.0003311199121958
1.0002997341457325
1.0002997341457303
1.000246460755938
1.0001883255917945
1.000246460755436
1.0001883255912938
1.0003364293821608
1.0003364293824268
1.0000463124342565
1.0000463124345247
1.00035876596171
1.000237411568772
1.0003587659622346
1.0002374115687782
1.0003910414007975
1.0003910414010668
1.0000954670019415
1.0000954670019424
1.0006913713549928
1.000368978968001
1.0006913713555323
1.000368978968798
1.00038755604507
1.0003875560445212
1.0008986036871037
1.0009068445981706
1.000898603686554
1.0009068445984408
1.000387556045623
1.0003875560450861
1.0003875560450317
1.000095467002496
1.0000954670022097
1.0008986036865086
1.0003875560450153
1.0003910414013562
1.000391041401065
1.0000463124345338
1.000046312434529
1.0006913713555499
1.0006913713555283
1.0009068445981502
1.000336429382439
1.0003364293824297
1.0002997341457402
1.0002997341457356
1.0003587659619866
1.0003689789682753
1.0003587659619742
1.0003689789685366
1.000331119912207
1.0003311199121983
1.0004041984220158
1.0004041984220116
1.0002464607556967
1.0002374115687775
1.0002464607559345
1.0002374115690162
1.0003288849531036
1.0003288849533374
1.000450687816175
1.000450687816413
1.0001976712791507
1.0001883255915527
1.0001976712793823
1.0001883255917927
1.0003269623259865
1.0003269623262236
1.0004730513264828
1.000473051326482
1.0001743799494376
1.0001668917656734
1.0001743799494431
1.0001668917656774
1.0003257896318702
1.0003257896318676
1.000485372066929
1.0004853720669273
1.0001629100776466
1.0001575893957104
1.0001629100778653
1.0001575893956989
1.0003250718212842
1.0003250718212804
1.0004934161006136
1.0004934161006114
1.0001567246586789
1.0001541453501
1.000156724658241
1.0001541453498854
1.0003236803694195
1.000323680369204
1.0004998548470825
1.000499854846869
1.0001518885668068
1.0001532771353954
1.0001518885667988
1.0001532771351667
1.0003183953945807
1.0003183953945696
1.0005144131022041
1.0005144131024064
1.0001441029529772
1.0001537706028663
1.000144102953169
1.0001537706030634
1.0003123863270023
1.0003123863269927
1.0001633029383148
1.0001633029381032
1.0001253773548613
1.0001531116884599
1.0001253773550502
1.0001531116890634
1.0000680656661298
1.00006806566591
0.9998640045697376
0.9998640045697295
1.0002338023623283
1.0001420306623725
1.000233802362303
1.0001420306625535
1.0000296873914163
1.000029687391606
0.9997454990151295
0.9997454990153274
1.0003690677428834
1.0003691216174033
1.0003690677430648
1.0003691216175812
0.9999817878308515
0.9999817878306247
0.9997454990155399
0.9997454990151153
1.000287854462532
1.000390945998277
1.0002878544622975
1.000390945998459
1.000029687391619
1.0000296873915948
0.9998640045697351
0.9998640045701355
1.0003690677426658
1.000390945998267
1.0003690677430537
1.000390945998247
1.000068065665924
1.0000680656661078
1.000163302938521
1.0001633029383048
1.2486173902497046
1.2487527095045627
1.0002338023624984
1.000369121617985
1.2372920974556947
1.0003123863273986
1.2374941242311037
1.0005144131030237
0.7542945889954077
0.765715119062015
1.0001253773550465
1.0001420306623432
0.7711429122089491
1.0003183953949801
0.7617839457106798
1.2279391400247905
1.000144102953369
1.0001531116890605
1.227762965546699
0.6759641661375544
1.0001518885663676
1.0001537706028478
17.14898230937932
17.700782497357267
1.00015327713517
36.2065726901112
-3.2352960576602197
-17.78988609007446
-21.84124440034483
1.0003183953949863
-13.554271637019253
1.0004998548470778
1.0004998548470783
-17.605620938553933
-1.3688056007479386
1.000144102953378
1.0001531116890698
-31.59138001218035
1.0003236803689886
1.0003236803689883
1.0004934161006156
1.0004934161006152
1.0001518885663763
1.0001537706028572
1.000151888566586
-17.03678031211642
1.0003250718215098
1.0003250718215086
1.0004853720671396
1.0004853720671387
1.000156724658684
1.0001532771351773
1.0001567246588987
1.000153277135603
1.000325789631628
1.000325789631625
1.0004730513262539
1.0004730513262514
1.000162910077859
1.0001541453505447
1.000162910077856
1.0001541453507599
1.0003269623262285
1.000326962326223
1.000450687816646
1.0004506878166428
1.0001743799492129
1.0001575893954693
1.0001743799492049
1.0001575893954644
1.0003288849533356
1.0003288849533305
1.000404198422262
1.00040419842226
1.0001976712793836
1.0001668917656783
1.000197671279377
1.0001668917656712
1.000331119912194
1.0003311199124487
1.000299734145993
1.0002997341462498
1.0002464607554296
1.0001883255915454
1.0002464607559332
1.000188325591791
1.0003364293821653
1.000336429382959
1.0000463124345185
1.0000463124350556
1.0003587659617095
1.0002374115687729
1.000358765962501
1.0002374115692765
1.0003910414007942
1.000391041401329
1.0000954670024922
1.0000954670024902
1.0006913713552623
1.0003689789685313
1.0006913713557954
1.000368978969064
1.000387556045898
1.0003875560453332
1.0008986036873766
1.0009068445984393
1.0008986036865282
1.0009068445981513
1.000387556045619
1.0003875560447686
1.000387556045009
1.0000954670019035
1.0000954670021867
1.0008986036864995
1.0003875560455837
1.0003910414007717
1.0003910414010557
1.0000463124345154
1.0000463124345162
1.0006913713549679
1.0009068445975904
1.0006913713555259
1.0003364293824215
1.0003364293824222
1.000299734145725
1.0002997341457247
1.0003587659619697
1.0003689789682597
1.0003587659619708
1.000368978968535
1.0003311199124396
1.0003311199121914
1.0004041984222494
1.0004041984220013
1.0002464607564305
1.000237411569264
1.0002464607559318
1.0002374115690138
1.0003288849533378
1.0003288849530911
1.0004506878164
1.0004506878164012
1.0001976712796272
1.0001883255925297
1.0001976712791412
1.0001883255917918
1.0003269623257511
1.000326962325984
1.000473051326708
1.0004730513269395
1.0001743799489666
1.000166891765905
1.0001743799489689
1.0001668917654358
1.0003257896318591
1.000325789632315
1.0004853720673794
1.0004853720676037
1.0001629100769553
1.0001575893950199
1.000162910077857
1.0001575893954664
1.0003250718210583
1.0003250718215009
1.0004934161001715
1.0004934161003898
1.0001567246584564
1.0001541453498735
1.000156724658899
1.0001541453505436
1.0003236803685556
1.0003236803691968
1.0004998548464352
1.0004998548468587
1.0001518885663692
1.0001532771353832
1.0001518885668013
1.0001532771353918
1.0003183953945607
1.0003183953947787
1.0005144131026062
1.000514413102401
1.0001441029529587
1.000153770602647
1.0001441029533829
1.0001537706030668
1.0003123863269967
1.0003123863269958
1.0001633029383068
1.000163302938511
1.000125377354858
1.0001531116888658
1.000125377354858
1.0001531116888673
1.000068065666125
1.0000680656661245
0.9998640045701478
0.999864004569943
1.0002338023621185
1.0001420306621613
1.0002338023621191
1.0001420306623676
1.000029687391207
1.0000296873912091
0.9997454990153342
0.9997454990155412
1.000369067742668
1.000369121617602
1.0003690677428778
1.0003691216176063
0.9999817878308365
0.9999817878312511
0.9997454990153205
0.9997454990155281
1.000287854461888
1.0003909459978466
1.0002878544625118
1.0003909459984706
1.0000296873909804
1.0000296873913905
0.9998640045695149
0.9998640045697174
1.0003690677428563
1.0003909459982478
1.0003690677430572
1.0003909459984557
1.0000680656659156
1.0000680656663163
1.000163302938315
1.0001633029385135
1.0002338023619053
1.0003691216173807
1.000233802362303
1.000369121617371
1.0003123863272125
1.0003123863274084
1.0005144131028292
1.0005144131028265
1.0001253773550682
1.0001420306621607
1.0001253773552616
1.0001420306623534
1.0003183953952044
1.0003183953947774
1.0004998548470783
1.000499854846654
1.0001441029535953
1.0001531116890758
1.0001441029531664
1.0001531116890687
1.0003236803692046
1.0003236803687794
1.000493416100843
1.0004934161008419
1.0001518885670164
1.000153770603281
1.0001518885665894
1.0001537706028527
1.0003250718219534
1.0003250718219505
1.0004853720675975
1.0004853720675955
1.0001567246589032
1.0001532771356043
1.0001567246588996
1.000153277135601
1.0003257896318636
1.0003257896318591
1.000473051326251
1.0004730513262483
1.0001629100778633
1.000154145350547
1.0001629100776348
1.0001541453503204
1.0003269623259943
1.0003269623259898
1.000450687816412
1.0004506878164103
1.0001743799492144
1.0001575893954708
1.0001743799494403
1.0001575893954744
1.0003288849530905
1.0003288849533367
1.0004041984217613
1.0004041984220093
1.0001976712791372
1.0001668917656792
1.0001976712791425
1.0001668917656665
1.0003311199119502
1.0003311199121971
1.0002997341451998
1.0002997341451982
1.0002464607554398
1.0001883255912976
1.0002464607556856
1.0001883255913036
1.000336429381898
1.0003364293818948
1.0000463124339936
1.0000463124339918
1.0003587659619795
1.0002374115687704
1.0003587659619742
1.000237411568766
1.0003910414010682
1.0003910414010642
1.000095467001931
1.000095467001929
1.0006913713552634
1.0003689789682704
1.0006913713552577
1.0003689789682646
1.0003875560450541
1.000387556044768
1.0008986036870962
1.0009068445981681
1.0008986036868077
1.0009068445981624
1.0003875560453372
1.000387556045328
1.0003875560450466
1.0000954670019315
1.0000954670022124
1.0008986036865268
1.0003875560447661
1.0003910414005175
1.0003910414010693
1.0000463124342445
1.0000463124345154
1.0006913713549883
1.0009068445978828
1.0006913713555394
1.000336429382425
1.000336429382695
1.0002997341459985
1.0002997341459974
1.0003587659617064
1.0003689789679966
1.000358765961975
1.0003689789682655
1.0003311199121967
1.000331119912195
1.0004041984220058
1.0004041984220051
1.0002464607559363
1.0002374115690191
1.0002464607556836
1.0002374115687662
1.0003288849533314
1.0003288849533323
1.0004506878168795
1.0004506878168813
1.000197671279378
1.0001883255917918
1.0001976712793792
1.0001883255915405
1.0003269623264588
1.0003269623264632
1.0004730513267164
1.0004730513267193
1.000174379949665
1.0001668917661322
1.0001743799492095
1.0001668917656743
1.0003257896316284
1.0003257896316322
1.0004853720669193
1.0004853720669207
1.000162910077406
1.0001575893957004
1.0001629100771887
1.0001575893950219
1.0003250718210575
1.0003250718214949
1.000493416100387
1.000493416100823
1.000156724658453
1.0001541453500926
1.0001567246588925
1.0001541453498746
1.0003236803689797
1.000323680369419
1.0004998548470692
1.0004998548470723
1.0001518885667862
1.0001532771355888
1.0001518885670182
1.00015327713582
1.0003183953947707
1.0003183953949828
1.000514413102605
1.0005144131028136
1.0001441029529583
1.0001537706030632
1.0001441029533793
1.000153770603068
1.0003123863269872
1.0003123863274
1.0001633029378953
1.0001633029380996
1.000125377354849
1.0001531116886546
1.000125377355468
1.000153111689278
1.0000680656657166
1.00006806566592
0.9998640045695377
0.9998640045695368
1.000233802362321
1.0001420306623618
1.0002338023625252
1.0001420306627726
1.0000296873916257
1.0000296873916226
0.9997454990155432
0.999745499015541
1.0003690677432986
1.0003691216178152
1.0003690677430856
1.0003691216176054
0.9999817878308364
0.999981787831252
0.9997454990148971
0.9997454990153153
1.0002878544620977
1.000390945998478
1.0002878544627227
1.0003909459984748
1.0000296873907595
1.0000296873911798
0.999864004569503
0.9998640045695051
1.0003690677424275
1.0003909459978266
1.0003690677430586
1.0003909459986646
1.0000680656661063
1.0000680656661114
1.0001633029385137
1.0001633029385166
1.0002338023622948
1.0003691216173596
1.0002338023623025
1.000369121617575
1.0003123863276167
1.000312386327208
1.0005144131026151
1.0005144131022037
1.0001253773554684
1.000142030662554
1.0001253773550625
1.0001420306625621
1.0003183953945662
1.0003183953945758
1.000499854846237
1.0004998548466577
1.0001441029531692
1.0001531116890696
1.00014410295318
1.0001531116886622
-16.116193237492915
1.000323680369203
-15.89289573715245
1.2236211807092459
-33.08611790393594
-15.969599104038188
1.0001518885670122
1.000153770603071
1.2234528364301311
0.6658217668925989
1.0001567246586782
1.0001532771356019
17.615139398824564
18.17276788905374
1.0001541453503222
37.058890042893346
1.0003875560456215
1.0000954670024824
1.0000954670024913
1.0008986036868268
1.0003875560453566
1.0003910414007886
1.000391041401071
1.0000463124342527
1.000046312434526
1.000691371354981
1.0006913713552672
1.0009068445978928
1.0003364293821544
1.0003364293824313
1.0002997341457283
1.0002997341457318
1.000358765961701
1.0003689789679915
1.000358765961981
1.000368978968272
1.000331119912192
1.000331119912448
1.0004041984222505
1.000404198422503
1.00024646075593
1.000237411569013
1.0002464607561894
1.0002374115690227
1.0003288849535767
1.0003288849538303
1.0004506878168886
1.0004506878168895
1.0001976712793765
1.000188325591788
1.000197671279872
1.0001883255922859
1.0003269623259916
1.0003269623262232
1.0004730513264783
1.0004730513267088
1.0001743799492064
1.0001668917659028
1.000174379949668
1.000166891766376
1.000325789631853
1.0003257896318607
1.000485372067374
1.0004853720671514
1.0001629100771785
1.000157589395019
1.0001629100776324
1.0001575893959256
1.000325071821283
1.0003250718210621
1.0004934161003884
1.0004934161003902
1.0001567246586782
1.000154145350095
1.0001567246584586
1.0001541453503195
1.0003236803689812
1.0003236803689843
1.0004998548468613
1.0004998548468622
1.0001518885665779
1.00015327713538
1.0001518885663714
1.0001532771351738
1.000318395394563
1.0003183953945665
1.0005144131023964
1.0005144131023989
1.000144102952961
1.0001537706028558
1.0001441029531701
1.000153770602853
1.0003123863269856
1.0003123863271974
1.0001633029380965
1.000163302938306
1.0001253773548477
1.0001531116886566
1.0001253773552643
1.0001531116890694
1.0000680656659138
1.000068065665924
0.9998640045695286
0.9998640045693297
1.000233802362313
1.000142030662358
1.0002338023619226
1.0001420306623712
1.0000296873911996
1.0000296873914256
0.9997454990151218
0.9997454990155468
1.0003690677430772
1.0003691216178054
1.0003690677431
1.0003691216170028
0.9999817878310386
0.9999817878312613
0.9997454990153141
0.9997454990151117
1.0002878544625065
1.0003909459984672
1.0002878544625249
1.000390945998485
1.0000296873913803
1.0000296873909753
0.9998640045695045
0.9998640045693017
1.0003690677432564
1.000390945998658
1.000369067742438
1.0003909459978384
1.0000680656657026
1.0000680656657044
1.0001633029377008
1.0001633029379056
1.0002338023620951
1.000369121617773
1.0002338023620987
1.0003691216171589
1.0003123863268022
1.0003123863268009
1.0005144131026258
1.00051441310242
1.0001253773550625
1.0001420306623536
1.0001253773552643
1.000142030662763
1.0003183953952024
1.0003183953949983
1.0004998548472943
1.000499854847296
1.0001441029533853
1.000153111689069
1.0001441029531821
1.000153111689067
1.0003236803689854
1.0003236803692055
1.0004934161004029
1.0004934161006211
1.0001518885665786
1.0001537706030703
1.0001518885668004
1.0001537706030748
1.0003250718212957
1.00032507182129
1.000485372067375
1.000485372067151
1.0001567246584682
1.0001532771351687
1.0001567246584624
1.0001532771353885
1.0003257896318622
1.0003257896318687
1.0004730513264892
1.0004730513267195
1.000162910077638
1.000154145350323
1.000162910077867
1.0001541453503218
1.0003269623259914
1.0003269623262216
1.0004506878164106
1.0004506878164103
1.0001743799489722
1.0001575893952457
1.2202817066671818
1.2202649161136783
1.000328884953099
-15.97699077738204
1.204796010106696
-15.772523652228442
1.0001976712791445
1.0001668917654367
-16.40771692152613
0.7896792880132811
1.2047229315968853
0.6346871505272326
1.000246460755689
1.0001883255915454
16.936271064334633
17.506297796217368
1.0002374115687696
36.06344073811644
-19.207002301800067
-1.4630345202226431
15.805944118187629
-16.74364081925119
1.0003269623262345
1.0004506878166537
1.0004506878166544
-36.299196417401674
18.269288810182537
35.502867639149486
1.0001743799494458
1.0001575893954773
1.0003288849533412
1.0003288849533412
1.0004041984220127
1.000404198422012
1.0001976712793863
-18.55523612400779
1.0001976712793876
1.000166891765912
1.000331119911942
1.0003311199124605
1.0002997341454762
1.0002997341459954
1.0002464607551809
1.0001883255912967
1.0002464607562012
1.000188325591799
1.000336429382174
1.0003364293824235
1.000046312434807
1.0000463124345373
1.0003587659617201
1.0002374115682613
1.0003587659619715
1.000237411569284
1.000391041401629
1.0003910414010793
1.0000954670027857
1.0000954670025055
1.0006913713558163
1.0003689789685404
1.0006913713549963
1.0003689789680024
-18.34009903084443
-2.7174215181508545
-3.2162738903179586
-14.622353832325011
1.0003236803687798
1.0004934161001846
1.000493416100399
-14.368420042767323
0.7532965662508422
1.0001518885665899
1.2519771466157565
1.0003250718212946
1.0003250718212846
1.000485372067613
1.0004853720673883
1.0001567246589056
1.2542588584954855
1.0001567246586776
1.0001532771356023
1.00032578963209
1.0003257896320976
1.0004730513267153
1.0004730513269475
1.000162910077631
1.000154145350765
1.0001629100774139
1.0001541453500975
1.0003269623257578
1.0003269623259925
1.000450687816655
1.0004506878166575
1.0001743799489697
1.0001575893954682
1.0001743799492062
1.0001575893954777
1.0003288849535914
1.0003288849533472
1.0004041984225036
1.000404198422257
1.0001976712796299
1.0001668917659055
1.0001976712793876
1.000166891765912
1.0003311199124452
1.0003311199122005
1.0002997341459978
1.000299734146
1.0002464607556845
1.0001883255917814
1.0002464607556911
1.0001883255917878
1.0003364293824246
1.0003364293826984
1.0000463124345207
1.0000463124347925
1.0003587659617048
1.0002374115685173
1.0003587659622402
1.0002374115690327
1.000391041400793
1.0003910414010657
1.0000954670019264
1.0000954670019273
1.0006913713552583
1.0003689789682664
1.0006913713552603
1.0003689789685293
1.0000954670022173
1.0000954670022169
1.0003910414013537
1.0003910414013508
1.000046312434267
1.0000463124342647
1.0006913713558179
1.0006913713555436
1.0003364293821704
1.0003364293821662
1.0002997341454725
1.0002997341454707
1.0003587659619835
1.0003689789685442
1.0003587659619784
1.0003689789682693
1.0003311199122045
1.000331119912201
1.0004041984222616
1.00040419842226
1.0002464607559425
1.0002374115690238
1.0002464607556885
1.0002374115687702
1.0003288849535883
1.0003288849535872
1.0004506878166617
1.0004506878166621
1.0001976712793872
1.0001883255917985
1.0001976712793856
1.0001883255915462
1.000326962325994
1.000326962325995
1.000473051326482
1.0004730513264821
1.000174379949213
1.0001668917656794
1.0001743799494445
1.0001668917659101
1.0003257896320914
1.0003257896316446
1.0004853720673816
1.0004853720669347
1.0001629100776372
1.0001575893952466
1.0001629100774125
1.0001575893956998
1.0003250718212886
1.0003250718210592
1.000493416100179
1.0004934161003967
1.0001567246586833
1.0001541453503222
1.0001567246584528
1.0001541453500964
1.0003236803687732
1.0003236803689903
1.0004998548466542
1.0004998548466535
1.0001518885665863
1.0001532771353872
1.0001518885668015
1.0001532771356016
1.0003183953945731
1.0003183953947774
1.0005144131022041
1.000514413102409
1.0001441029529694
1.0001537706028636
1.0001441029533784
1.0001537706030657
1.0003123863269996
1.0003123863267964
1.000163302938107
1.0001633029376988
1.000125377354859
1.0001531116884599