# vtk DataFile Version 1.0
Tissue data
ASCII

DATASET POLYDATA
POINTS 1593 float
0.0654933 -0.597255 0.831775
0.0500686 0.471718 0.882794
0.207894 -0.747662 0.722001
0.185906 -0.727241 0.741393
0.164333 -0.706628 0.75931
0.14362 -0.685577 0.775954
0.123448 -0.664203 0.791355
0.104425 -0.64271 0.805571
0.0851661 -0.620538 0.818948
0.0980156 -0.586948 0.833781
0.130259 -0.57702 0.83461
0.162146 -0.566246 0.834848
0.194901 -0.554465 0.834385
0.228441 -0.541691 0.833141
0.262678 -0.527922 0.831055
0.297502 -0.513146 0.828072
0.332782 -0.497348 0.8241459999999999
0.368366 -0.480522 0.819238
0.404095 -0.462676 0.813314
0.439794 -0.443833 0.806346
0.475276 -0.42403 0.798323
0.510355 -0.403329 0.789235
0.542722 -0.383195 0.779755
0.573795 -0.362912 0.769587
0.604114 -0.342118 0.75859
0.634256 -0.320479 0.7464689999999999
0.665171 -0.296985 0.73273
0.694985 -0.273383 0.717954
0.723111 -0.249542 0.7027559999999999
0.750222 -0.226038 0.686173
-0.226643 0.748327 0.7197399999999999
-0.200089 0.727927 0.740623
-0.173776 0.706742 0.760123
-0.148119 0.684724 0.778269
-0.122928 0.66191 0.795106
-0.0989084 0.638508 0.810682
-0.0754848 0.615337 0.824605
-0.0534297 0.591485 0.83727
-0.0317365 0.567726 0.848617
-0.0109508 0.544037 0.85869
0.00913238 0.520647 0.867533
0.0293091 0.49669 0.875542
0.0660591 -0.567031 0.845245
0.0667447 -0.537159 0.8573109999999999
0.0673668 -0.507138 0.868312
0.0679396 -0.475789 0.878682
0.0684712 -0.443129 0.888351
0.068943 -0.409192 0.897257
0.0693278 -0.374042 0.905343
0.0696076 -0.337772 0.912561
0.0697808 -0.300494 0.918882
0.0698633 -0.262324 0.924293
0.0698805 -0.223382 0.928801
0.0698607 -0.18379 0.932429
0.0698384 -0.143671 0.935204
0.0698465 -0.105739 0.937076
0.0699473 -0.0684103 0.938316
0.0702055 -0.0310059 0.939027
0.0702236 0.00710131 0.939222
0.0682033 0.047455 0.939163
0.0663084 0.0872 0.938379
0.0645866 0.12629 0.9369339999999999
0.0629996 0.164646 0.934806
0.0618987 0.202364 0.931913
0.0610327 0.239252 0.928268
0.0595972 0.275316 0.923978
0.0581131 0.310306 0.91898
0.0566018 0.344142 0.913291
0.055054 0.376785 0.9069349999999999
0.0534707 0.40822 0.899937
0.0518171 0.439697 0.8919819999999999
0.0819879 0.463142 0.883562
0.113573 0.454021 0.883288
0.145547 0.444406 0.882426
0.178356 0.434 0.880769
0.211984 0.422792 0.878316
0.24636 0.410752 0.875016
0.281386 0.397852 0.870823
0.316937 0.384076 0.865687
0.352866 0.369422 0.859559
0.389012 0.353913 0.852389
0.425203 0.337587 0.844131
0.461259 0.320499 0.8347479999999999
0.496996 0.302714 0.824215
0.530081 0.285501 0.813272
0.561905 0.268219 0.801582
0.593019 0.250555 0.78895
0.623919 0.232167 0.7751129999999999
0.655732 0.21229 0.759365
0.686217 0.192258 0.7426929999999999
0.715185 0.172134 0.725252
0.742546 0.152006 0.707303
0.768902 0.133504 0.687744
0.0339987 -0.588328 0.837419
0.00339987 -0.579004 0.842133
-0.0268718 -0.569168 0.846031
-0.0580489 -0.558535 0.849187
-0.090082 -0.547264 0.851502
-0.123461 -0.534754 0.852849
-0.158484 -0.521209 0.853497
-0.194223 -0.506742 0.853159
-0.230546 -0.491292 0.851868
-0.267246 -0.474822 0.8496009999999999
-0.304137 -0.457352 0.846339
-0.341035 -0.438923 0.842063
-0.377751 -0.419592 0.836761
-0.411852 -0.400728 0.830862
-0.444789 -0.381674 0.824238
-0.477165 -0.362106 0.816784
-0.509533 -0.34165 0.808326
-0.543091 -0.319396 0.798387
-0.575537 -0.296836 0.7875219999999999
-0.606748 -0.274092 0.775793
-0.636644 -0.251296 0.763252
-0.665115 -0.22855 0.750004
-0.692142 -0.205986 0.736101
-0.717539 -0.183646 0.72175
-0.741206 -0.161496 0.707249
-0.764009 -0.140659 0.691472
-0.105451 -0.776857 0.717817
-0.0802732 -0.75694 0.735683
-0.0572792 -0.735309 0.7529129999999999
-0.0350795 -0.713127 0.768985
-0.0139479 -0.690532 0.783818
0.00641906 -0.667826 0.797343
0.0260017 -0.645176 0.8095789999999999
0.0456701 -0.621766 0.821
0.269111 0.73849 0.716345
0.247035 0.716077 0.738415
0.225251 0.692942 0.759036
0.203811 0.669287 0.778148
0.182874 0.645142 0.795822
0.162398 0.620659 0.812079
0.142543 0.595985 0.826936
0.122977 0.571278 0.8404119999999999
0.104449 0.546762 0.852599
0.0863305 0.522681 0.863409
0.0681083 0.498071 0.873447
0.0192045 0.460548 0.88707
-0.0108162 0.449401 0.890288
-0.0405084 0.438138 0.892614
-0.0709448 0.426245 0.894207
-0.102882 0.413409 0.8948389999999999
-0.136499 0.400892 0.894392
-0.170942 0.386959 0.89325
-0.206093 0.372026 0.891262
-0.241777 0.356146 0.8883719999999999
-0.277824 0.339346 0.884549
-0.314051 0.321663 0.879763
-0.350277 0.303158 0.873984
-0.386322 0.283915 0.867187
-0.419825 0.265313 0.8598709999999999
-0.452208 0.24669 0.85183
-0.484053 0.227731 0.84292
-0.515886 0.208083 0.832925
-0.548864 0.186908 0.821294
-0.580745 0.165638 0.808681
-0.611407 0.144371 0.7951509999999999
-0.640738 0.123198 0.780784
-0.668656 0.102194 0.765672
-0.695126 0.081439 0.7499
-0.720218 0.0610915 0.73349
-0.743766 0.0412095 0.7166589999999999
-0.765702 0.0217018 0.699629
-0.786321 0.00275711 0.682062
-0.773276 0.0928459 0.6886369999999999
-0.770122 0.0567459 0.694345
-0.752097 0.226781 0.684957
-0.752638 0.187345 0.69284
-0.751744 0.14927 0.699965
-0.74956 0.112597 0.706584
-0.747365 0.0766682 0.711638
-0.722203 0.290263 0.69308
-0.724489 0.249894 0.702233
-0.726067 0.210441 0.7097289999999999
-0.726075 0.171793 0.716801
-0.724849 0.13412 0.723205
-0.722908 0.097176 0.728725
-0.68788 0.354822 0.699242
-0.692081 0.313822 0.709663
-0.695627 0.27348 0.718226
-0.697714 0.233481 0.7262069999999999
-0.698725 0.194316 0.733205
-0.698457 0.15595 0.739523
-0.697222 0.11833 0.745071
-0.649151 0.419825 0.70303
-0.655364 0.378679 0.714762
-0.660905 0.337843 0.72458
-0.664933 0.296999 0.733779
-0.66797 0.256698 0.741804
-0.66975 0.216974 0.748974
-0.670416 0.178011 0.755281
-0.67001 0.139765 0.760832
-0.606541 0.48392 0.704059
-0.614587 0.443703 0.717029
-0.622102 0.402828 0.728285
-0.628046 0.3616 0.738896
-0.633007 0.320616 0.748229
-0.636726 0.279915 0.7565769999999999
-0.639358 0.239771 0.763888
-0.640851 0.20026 0.770316
-0.641291 0.161421 0.775918
-0.563489 0.542199 0.702472
-0.572185 0.504914 0.716302
-0.580218 0.467298 0.728602
-0.587689 0.426387 0.7409
-0.594345 0.385217 0.751836
-0.599833 0.344017 0.761652
-0.604297 0.3031 0.770275
-0.607651 0.262591 0.777856
-0.609934 0.222635 0.784461
-0.611159 0.183242 0.790202
-0.527503 0.562887 0.713042
-0.537461 0.52573 0.726696
-0.545951 0.487882 0.739681
-0.553431 0.448954 0.751892
-0.560059 0.408076 0.763513
-0.565969 0.367014 0.773766
-0.570933 0.32602 0.782808
-0.574917 0.285325 0.7907029999999999
-0.577857 0.245036 0.7975869999999999
-0.579771 0.205164 0.803557
-0.479688 0.618586 0.707288
-0.491104 0.582098 0.722758
-0.501755 0.545426 0.736485
-0.511065 0.507924 0.749605
-0.518806 0.469241 0.762261
-0.525667 0.429427 0.7740279999999999
-0.531793 0.388971 0.784646
-0.53713 0.348315 0.7940429999999999
-0.54155 0.307727 0.8023
-0.544967 0.267358 0.809527
-0.547336 0.227141 0.8158569999999999
-0.439604 0.638552 0.715508
-0.451898 0.602244 0.731206
-0.462976 0.564927 0.7460789999999999
-0.473196 0.527023 0.759716
-0.482206 0.488386 0.772406
-0.490123 0.449081 0.7841009999999999
-0.497075 0.409298 0.794705
-0.503068 0.369255 0.804203
-0.50806 0.329198 0.812625
-0.511883 0.289249 0.820112
-0.514323 0.249162 0.826893
-0.399371 0.656566 0.722734
-0.411815 0.620801 0.738993
-0.423312 0.583903 0.7543489999999999
-0.433972 0.545995 0.768629
-0.443853 0.507375 0.781676
-0.452816 0.468165 0.793551
-0.460853 0.428552 0.804245
-0.467969 0.388759 0.813756
-0.474115 0.349029 0.822131
-0.479109 0.309636 0.829491
-0.482183 0.269026 0.836564
-0.347826 0.706409 0.7105819999999999
-0.359272 0.672828 0.729
-0.371549 0.637899 0.745661
-0.383262 0.60165 0.761456
-0.394313 0.564243 0.776165
-0.404682 0.525914 0.789683
-0.414344 0.486917 0.801927
-0.423234 0.447443 0.812905
-0.431327 0.407696 0.822632
-0.438635 0.367888 0.831133
-0.445172 0.328218 0.838458
-0.449747 0.287974 0.845307
-0.307313 0.721741 0.7148019999999999
-0.31948 0.688617 0.733302
-0.331318 0.653995 0.75095
-0.343122 0.618291 0.767277
-0.354441 0.581463 0.782438
-0.36519 0.543651 0.796387
-0.375328 0.505054 0.8090579999999999
-0.384825 0.465884 0.820418
-0.393645 0.426333 0.8304819999999999
-0.40178 0.386565 0.839285
-0.409272 0.346682 0.8468789999999999
-0.416207 0.306497 0.853368
-0.267023 0.735611 0.717839
-0.279523 0.702863 0.73688
-0.291509 0.668975 0.754889
-0.303203 0.633823 0.771799
-0.314648 0.597602 0.787444
-0.325655 0.56039 0.801835
-0.33615 0.522335 0.814935
-0.346093 0.483621 0.826713
-0.355455 0.444434 0.8371689999999999
-0.364216 0.404926 0.846335
-0.372369 0.365181 0.854277
-0.379894 0.325077 0.861117
-0.239722 0.715936 0.739314
-0.251928 0.682638 0.757765
-0.263712 0.648199 0.7750819999999999
-0.275186 0.612629 0.7912089999999999
-0.28634 0.576061 0.806057
-0.297081 0.538624 0.819597
-0.307358 0.500473 0.831805
-0.317133 0.461774 0.842676
-0.326381 0.422679 0.8522379999999999
-0.335076 0.38328 0.86055
-0.343143 0.343538 0.8677279999999999
-0.212689 0.695187 0.759507
-0.224663 0.661398 0.777246
-0.236226 0.626531 0.793796
-0.247464 0.590643 0.809095
-0.258356 0.553866 0.823083
-0.268865 0.516339 0.835731
-0.27895 0.478213 0.847034
-0.288578 0.439632 0.857011
-0.297714 0.400697 0.865716
-0.30628 0.361419 0.873247
-0.186128 0.673543 0.778293
-0.197853 0.639336 0.795275
-0.209191 0.60414 0.811009
-0.220172 0.568049 0.825443
-0.230828 0.531181 0.838539
-0.241129 0.493677 0.850285
-0.251039 0.455678 0.860693
-0.260525 0.417282 0.8698089999999999
-0.26951 0.378525 0.877718
-0.16012 0.651132 0.795683
-0.171634 0.616579 0.811863
-0.182675 0.58119 0.826734
-0.193425 0.545005 0.8402769999999999
-0.203868 0.50814 0.852478
-0.21396 0.470761 0.86333
-0.223706 0.432955 0.872872
-0.233027 0.394759 0.881182
-0.134888 0.628031 0.811716
-0.145941 0.593312 0.827029
-0.156776 0.557848 0.840996
-0.16735 0.521626 0.853652
-0.177512 0.484863 0.864967
-0.187418 0.447681 0.87495
-0.197001 0.410076 0.88368
-0.110016 0.604578 0.826295
-0.120858 0.569709 0.840739
-0.131732 0.534187 0.853859
[...]
CELL_DATA 3055
SCALARS gaussian_curvature float 1
LOOKUP_TABLE default
0.9953009157434635
1.0130752704845876
1.0742302061596611
1.092831436499683
1.0206128319183272
0.8220951739034449
1.0030216473295794
0.8500436664923211
1.0131957851773317
0.9054601894077348
0.8083395565747504
0.8127752816628424
0.9945108356435169
0.9827142357180945
1.053163651613855
0.9388542191762164
0.9284411166556535
0.9450031047697086
1.0243666863142344
0.9526616967271315
0.9437163454811504
0.8673871489193468
0.924680227195309
0.8585500990023611
1.017204433308698
0.940140727066494
0.8726958713599033
0.8663811487300801
0.8574968078748673
0.9649403094521323
0.8462146529330108
0.8042937461056054
0.8568892744317791
0.9759898986882214
0.868048765310454
0.7865741484331542
0.9193268327707166
0.8816879165648963
0.8595921491016763
0.8419479805917693
-0.8742696005128189
-0.5002025733163064
14.246068669714585
0.8761859548873474
1.2706380379052489
0.884874167508313
0.9052592233297021
15.993879085963952
-0.6964210337570176
0.8830422629328627
0.880397123782064
1.2433373267363992
0.8084979246158301
0.880578233718819
0.8786143422839912
0.8914534043518538
0.8691044570956368
0.8728117220806453
0.8839639639156545
0.9165084667553234
0.9158526366321846
0.8768615640626637
0.9172879315899605
0.8399299757395784
0.9027052905230919
0.8533643989113451
0.8601897275623612
0.9027031996056571
0.8924138495826659
0.8200843475252639
0.8880720377523297
0.8546328654570906
0.8598452409006425
0.8497934887421978
0.8461419518051934
1.0273965857708491
1.027445106557308
0.8353566118922119
1.0037211060207745
0.7934191811404315
0.8424045759222442
0.9993311484525285
0.994779831350916
0.7943506184118463
1.0301508665937407
0.8051128653653843
0.830388030788503
0.8367145526539488
0.7355582948587751
0.8204747574665932
0.8089993475934633
0.8099887920188367
0.7929186175644345
0.787581540124362
0.8219473299986192
0.8118380073285606
0.7690091974570634
0.7901913446463725
0.7751733560084706
0.7774467743232176
0.7677658631253881
0.8056512749286303
0.8213265302518482
0.75912324829627
0.7733806477218854
0.7795056102571364
0.7543957452335048
0.7661062670305194
0.7506773132047173
0.8003293366163976
0.8137304309647367
0.7387983446429844
0.7361183548226672
0.7748796342075126
0.7387633082453021
0.7606379011336432
0.7399505289972346
0.7979254027561471
0.8099757619384149
0.7206638934477854
0.7169804978166803
0.7727671418744508
0.7284195036095606
0.7577639319611646
0.7341036658326827
0.7975698159235944
0.8084863437314209
0.7083166141753746
0.7017482247655318
0.772397037348103
0.7236653114750217
0.757627838182513
0.7325563784379137
0.7991340363661255
0.8093036050283304
0.7014658875859207
0.6918013525093956
0.7750178491620423
0.7220841918556653
0.7614962183045464
0.7336340207427687
0.8018163953844806
0.8111633834229737
0.7001552268804527
0.6884279895736
0.7797512407063303
0.724245792018087
0.76592846765548
0.7382852165290144
0.8063114426069646
0.8148549664276191
0.7007582523338038
0.6882175160832731
0.7837852468088706
0.7291710141968575
0.7722818388635542
0.7453108573780068
0.8090610785517252
0.8177645012989689
0.70654188841787
0.6921685510657438
0.7910460109927426
0.7376455138149423
0.7778492509865
0.7514197352942471
0.8139480692346799
0.8204597288483461
0.7140579790240822
0.6990941968081593
0.789030413570506
0.742476240748323
0.7737026350698363
0.7535779779399061
0.814205151741442
0.8259260473993733
0.7234498310162241
0.7088057907712882
0.7856319320033489
0.7467852993112328
0.7773309541798339
0.7586089786176481
0.8077873724770204
0.8210328137144438
0.7295022970902185
0.7172685659867929
0.7907819498728967
0.7579165288547408
0.7886632565277139
0.7745198110717438
0.8033261851495974
0.8120306299302062
0.7435992661599174
0.7270087137018104
0.7982779450674622
0.7801800517493133
0.8016259465093941
0.7976714986472153
0.788240684370304
0.7911702311072566
0.7663017741424002
0.7463242707700073
0.7896090147108652
0.806809117743462
0.7952125142052687
0.8163670651000445
1.162154600549559
1.16413427165093
0.7945925065813795
0.7715766098782194
1.15477467137005
0.8239092603407019
1.1607918546107103
0.8087718926865864
0.8640629981298013
0.8770464268037139
0.8176690503504453
0.7979102439477055
0.869927179662458
0.81573996079042
0.8498405344932282
1.147673277545314
0.8337328744886178
0.8205245963945278
1.173478579522662
0.8056917664151575
0.8453018030830838
0.8374894148039337
-12.91666927439374
-12.546646362202482
0.8475379021668376
-22.525591485963904
-2.7076871894461614
-16.39163166930602
-17.862582749930063
0.8900202443383729
-12.784145603189021
0.8967425442803212
0.9065211766127864
-14.26407421375567
-29.01505333992932
0.8916556989338893
0.8924568013237455
-2.3150286181707482
0.889566388967149
0.8680917167906704
0.8953286730389357
0.864075368529992
0.878180648137257
0.8869922580459457
0.8812218737997154
11.388768318640103
0.8778536473514339
0.8857186598985511
0.8383934868532325
0.8775118039092935
0.8571749693949708
0.8632642542525808
0.8773067995015841
0.8687936651420697
0.8198526167790376
0.8688944490418897
0.8369515830831494
0.8468750982899402
0.8447601212314191
0.8426223133491508
1.0006181817785944
1.000823676249031
0.8071007070495639
0.980989801488642
0.8833894818281021
1.0473550610603892
0.7856462642182505
0.8404046447042172
0.995044287243394
0.9926533167813969
0.881398716685979
1.0585788335717297
0.9646462371227815
0.9778607747762452
0.7360085210699618
0.7165448433807713
1.0243690843470143
1.027199797590426
0.9689292096357625
0.9383332398543561
0.9671157635755274
0.9233052561406575
0.9158082671113967
0.7661350989823986
0.9627240606868186
0.9680418463839924
0.9451762239290153
0.9360888817405371
0.8785062920909955
0.9132294573373871
1.0042996499797967
0.9731182471019428
0.9603633919423218
0.9719705871749047
0.8767013174770686
0.9264884583746436
0.8836781985063566
0.8987421741575401
0.8447016725898624
0.9056300732545706
0.9236011233373149
0.9346166325018432
0.8752903850393439
0.8814700198353143
0.8691213038396688
0.8455094724194754
0.9672915672272191
0.9816763865121163
0.847108345272178
0.9225044609709947
0.9625336198404004
1.0119426678258006
0.9403332213477539
0.9068926491814556
0.931452961967047
0.9203252425348969
0.7730273822317969
0.9722077195871197
0.8965193057620666
0.864058094477336
0.900034549109295
0.6866198209489246
0.8776885439296482
0.7248868913677271
0.9277796642402137
0.8506664255033456
0.8177494638567193
0.8560014914566298
0.638140544005389
0.7233653971168562
0.8281574907633421
0.6748424094936212
0.8771349996625843
0.8009331571297316
0.7690731595952962
0.8087562529992389
0.5879690411395936
0.6770467097869799
0.7745591138551708
0.6236742741742352
0.8225395011786597
0.7478565040305767
0.7157289431120546
0.7592204977514224
0.5391486380966115
0.6295341526980804
0.718930928133229
0.5709789668838201
0.7637045917165601
0.6904356276152341
0.6622507881707156
0.70702919047303
0.48868819725404866
0.5810400983231816
0.6598130011042767
0.5171469046391244
0.7012236448726112
0.6318265125087849
0.6058024204323448
0.6530138710821148
0.44005278844789275
0.531050741794231
0.5998450527811179
0.46557037034556625
0.6376351136791464
0.5727575636074211
0.5476784022113035
0.5950464136308649
0.3934078267494666
0.4825698527214537
0.5396823053685889
0.41504922735186417
0.5740551776758592
0.5142996497308598
0.4898854531209324
0.5356716108616756
0.34959111509003
0.4351369077494873
0.48143470918130765
0.36808293380020896
0.513879609697486
0.46028336226138666
0.43526039163764646
0.4780840078845417
0.3097368657858592
0.390495469454676
0.42909403190611217
0.32717003551942003
0.4544750363343862
0.4061472873837934
0.3838556833288622
0.422466943576575
0.275047158557289
0.3498144172849059
0.3720025164402127
0.28579649545697206
0.38201212403560464
0.34413385200295665
0.33388781856466254
0.37112198988158607
0.24339003596798375
0.3116179509326741
0.3065198413158845
0.24004203949434777
0.31682303532841105
0.2882235055395223
0.27808996068948927
0.3154675455336593
0.21425583499425765
0.2759411880138783
0.2606365178708644
0.21439430181596492
0.2891286000637845
0.27148591379777376
0.23350866840967077
0.2612653052408222
0.2015027870477671
0.24954578627123442
0.2479156229879581
0.18384820415807182
0.24259966952798487
0.19617493696410931
0.2115311400169792
0.22561626763161194
0.14083096808254641
0.21557716295405055
0.20854698173931438
0.12458804295782824
0.2798192917136368
0.2422850854960262
0.22301648744727604
0.22068469226496756
0.15570563373690352
0.18427529166765916
0.3000766028997977
0.22539174101946535
0.360090922835011
0.3229402671722892
0.2479877133677874
0.24219990788958812
0.18317893933298435
0.23118987458862048
0.3161988106087228
0.24050934035766505
0.3817340309925372
0.34319521640420125
0.28127919157869
0.27308241427296787
0.20887398795113285
0.24909211307927598
0.35438459947042367
0.2714480760147172
0.42759892301133784
0.38320121414396735
0.3161433337513453
0.308573146243426
0.23098697628383902
0.2710987642667908
0.40024351219079235
0.35196055551476313
0.45958860302827936
0.45570335521962047
0.3585219946637074
0.34763613976517443
0.3022192683601619
0.29299882725848797
0.43498932856684774
0.41962272193875577
0.45810425644947506
0.446622897630042
0.40791517178017855
0.3907929287145252
0.3517652529015924
0.33810459902785595
0.4537366932709801
0.4970159111779092
0.4755636214547707
0.5303241981811331
0.4645531167878121
0.441846523179638
0.4401218527413019
0.3218713701562712
0.5129002202519073
0.612016788316712
0.5347508453204994
0.5791068366589417
0.5214592770983217
0.49493910181801726
0.5495675589631225
0.41098091039093615
0.5735685856380124
0.6628714033559816
0.5956468886509215
0.6405937150304485
0.5827511337386303
0.5524924502675318
0.5957957315690969
0.4495819355184675
0.6359934490301411
0.7264231087722315
0.6601057528538977
0.7055885862164613
0.6450065448215045
0.613842532542903
0.6541329463161194
0.5012278807874517
0.7017439440769767
0.7902903679831637
0.7290079550747853
0.7720715456184088
0.7084634386260686
0.6758383431943531
0.712167052322821
0.5551751081000065
0.7735009998336074
0.8691601187034046
0.7764612518091671
0.7386877015994371
0.7867442436345902
0.611532354889252
0.8029873257399239
0.6775818552212867
0.672435318221879
0.6672402029020101
0.5909121230241178
0.6943310896673878
0.714167937755338
0.7137666377695151
0.6328759364431572
0.6800263685255263
0.6754637470770608
0.7251715376361296
0.7005408742141335
0.5443337798949877
0.6641652186649643
0.6375073137834764
0.6423544916141566
0.6202592081811342
0.6885521963678108
0.7158182460949876
0.6277943917629374
0.5772086685083523
0.6485565396111447
0.6020386405593127
0.6263609204305484
0.6019383048117388
0.6749254282512736
0.693110357957132
0.5786851496595219
0.5871927952608045
0.6375783941978305
0.5857259247591395
0.6173932240043698
0.5899633701844884
0.6675890752440601
0.682740490116907
0.5639351030503326
0.5567939922031411
0.6340322980180516
0.576690915581453
0.6154365244815023
0.5855249958647851
0.6656295756310936
0.6790011826636413
0.5537624033783568
0.5452440362725852
0.6363744469740962
0.5751782484771164
0.6199562497957232
0.5886715799154607
0.669512116898595
0.6801714720190433
0.5522466453235961
0.5396648805081685
0.6439276632792303
0.5801212499492292
0.6293028852694795
0.5967811418197408
0.6768587189273452
0.686024975368337
0.5568219697321726
0.5424406965448838
0.6549223257838374
0.5908175193507355
0.6424632478630617
0.6108801848796985
0.6874412983175422
0.6947529134512993
0.5675968446175355
0.5502611868694843
0.6689176576733439
0.6064726643257659
0.6588082245862792
0.6279462942220645
0.6999511340500119
0.7060156967734346
0.5831819127643552
0.5643687585850878
0.6854030769131803
0.6254436721930834
0.675866529903747
0.6467690555478648
0.7142770525499458
0.7187156765997127
0.6025640104067594
0.5817758808743299
0.69750666620444
0.6453582343037916
0.6884382564232812
0.665387298878515
0.7249217293440675
0.73215556868014
0.6251158238286004
0.6036469832863498
0.7090241895564743
0.6668783521937757
0.708057964891453
0.6889630850735206
0.7322309145879895
0.739060044594424
0.647908237841936
0.6261747740514841
0.7303428000956389
0.6951424572800395
0.7345091519723197
0.7184036889746527
0.7483532168949028
0.7492751067222321
0.6770810991489246
0.6519316125905659
0.7543012943982628
0.727770790124169
0.7616368708266761
0.7512118295502493
0.7692457487542914
0.7674640231276122
0.7105082131794921
0.6830797538988607
0.7789332089883881
0.7607552340227246
0.785665712788948
0.7779127790997112
0.7907710476151768
0.7884191638094934
0.7441158737541377
0.7173098923369855
0.7957511720717826
0.7846441793938297
0.8042379923914682
0.800883933402752
0.7961071293117903
0.7978595086557444
0.7727465240611906
0.7493757634984853
0.8078849777314072
0.810105780316908
0.7991643826433669
0.8047392442175839
0.7956740484884488
0.7923830203885178
0.7985911010639299
0.777471598817135
-5.935148897266631
0.8009871691036615
-5.621354793411831
1.109206411384245
-14.743219318303357
-8.021116967636319
0.8149481957544982
0.8071855916154425
1.127222197454003
0.7951565558186653
0.8278094862591769
0.8237547268402556
-12.756460391427145
-12.407581796448813
0.8446224396021719
-25.491796471614265
0.9537200503409683
0.9419034903704657
0.947608590630332
0.9636439361118815
0.9687344680915371
0.9333224945405881
0.9296782767572283
0.9144687927090083
0.9051194746657821
0.9160138660650088
0.92727739919921
0.9551315988432271
0.8783773640416865
0.9678245678862802
0.9452844101241014
1.0440809320119213
0.87479781256419
0.8935806127559323
1.0532230189276015
0.9881170481490853
0.992232942216132
0.9530716436635767
0.9112369700414741
0.7732791496010991
0.8877090467142883
0.8371809631447613
0.8496440243102139
1.0260517636998798
0.7308710953692249
0.6718644029600263
0.654770653675004
0.7337217817061804
0.8599509955304581
0.9357929747008638
0.7543408829889926
0.7523280102767027
0.7057308747737099
0.7871789474730643
0.7544497084554213
0.7569466531235993
0.6175315835940116
0.695651262656539
0.7882289512573181
0.8172482655194006
0.7206877641490564
0.742771837360992
0.708952640523114
0.7285397690668715
0.7121112337725904
0.657673886899257
0.7655257771940271
0.7807505967408881
0.6937075677017992
0.7338371787428992
0.6958837809268222
0.7164262634241647
0.6719925753052636
0.6786611177501123
0.7560522276850732
0.7735087578420805
0.6789561591788449
0.7241178891222868
0.6834041465180772
0.7080233939641767
0.6569148857736242
0.6521275151250658
0.7500909675994201
0.7646143908434719
0.6686027447563176
0.7197021836009123
0.6776453457923755
0.7041255371908706
0.6452043410309845
0.6379644693875235
0.7466735709426886
0.7609678597830862
0.6641371498625921
0.7181454418541232
0.6733012386482513
0.7008293392412873
0.6380039329961285
0.6281137252005787
0.745250883660989
0.7582023663395127
0.6577475399371057
0.7107160574546312
0.6640175411686051
0.6894579580930946
0.634213816207948
0.6236342980526302
0.7398868519326508
0.7571055755261727
0.6503260005192115
0.6992389357628664
0.6621018143805608
0.6855743326997263
0.6286083050364315
0.6187661219566676
0.7287704013568503
0.7481602181650981
0.6561676774144767
0.7026019771627926
0.6739330418237381
0.6968948232528885
0.6343564533219304
0.6185728948052346
0.7279423199490627
0.7404461410799803
0.6759507279476493
0.7181877194166834
0.7002408816248972
0.7195160916647808
0.6557338644261864
0.6319049542097289
0.743500279882849
0.7475477265053243
0.7061679239846428
0.7423696086147686
0.7268237940698344
0.7437502686600767
0.6843099834594311
0.6581660775782227
0.7646146305141984
0.7670736740303763
0.7295471347163305
0.7601693056576259
0.7465078579615421
0.7602035543125952
0.709327657757594
0.6847463765858862
0.7776832367408038
0.7835092216426843
0.7501628995154044
0.7711029232482232
0.7664995793615935
0.7737439067433592
0.7330197572187096
0.7091452387061109
0.7875382235996353
0.7941527857471853
0.7733386829705784
0.7843573247286206
0.7863830940280894
0.7901574084043659
0.7589205767988879
0.7349383308932085
0.7963695528369794
0.8021914352031303
0.7954071853627722
0.7971216646306072
0.8080300672591807
0.8059702321507392
0.785088637984066
0.7616464404776927
0.8020840649787851
0.807132036860903
0.8194786969673415
0.8074133205815779
0.8301800143488305
0.8201744730715084
0.8100359050560748
0.7882687279692078
0.7854245257966191
0.7889438377139585
0.8422769561656478
0.8069916138763892
0.8341875990721898
0.8089077980602533
0.8341344426152881
0.8125947088872041
1.1302089186597262
1.1214029830698866
0.8360273321148326
-5.600481529516018
1.1338212900977152
-5.277407770521198
0.8506491855004426
0.84066693890744
-5.889631245938832
0.8429753864207765
1.1571309342687923
0.7865892224958863
0.8648737695929924
0.856185978807525
-16.336560661400853
-15.95652389628408
0.8743688229368582
-32.23649715420528
-6.447471854248105
-1.4614917521654696
9.487677606210525
-4.043565354034254
0.9212571364163035
1.0133989674810384
0.9922413558489604
-13.243539583644509
11.86242040142193
25.75755139231029
0.8021527155967262
0.7941466222263586
0.9660910796479061
0.9980321483297117
0.9583681209412294
1.0114668012551131
0.9819469139821875
-8.170719427794934
0.9648026345295757
0.8399074212292471
0.9729530346515255
1.0030594353135056
0.9808735281027254
0.9578812484508219
0.9718798347719568
0.9731507553959422
1.0578822052806385
1.0330600574221096
0.9917527359888726
0.959387037545922
0.9885908751013089
0.9792174563102618
0.97750972530542
0.9655573175397041
0.9416116283027758
0.9949286091748084
0.9729913745343037
0.9739065468281558
0.9630670652344586
0.9733556563193579
1.035523858791973
1.036880348675526
0.9607730213316805
0.9483085215706404
-13.419382480454907
-2.4123501466560078
-2.7925521452699007
-10.113144959902757
0.893201467278657
0.9013066533984693
0.9006207467809848
-9.786195146921955
0.8585981159307324
0.881906160793148
1.2275048080591162
0.9064656143454926
0.8874633143020643
0.8991922594072486
0.880875865981305
0.9119404531866526
1.233731305220431
0.8793078463898119
0.8811699723832234
0.9031241907118703
0.8608051777279
0.8823074888059984
0.8583048692479716
0.9286286976334711
0.9301716051700094
0.8533206824752164
0.865235902816369
0.9049554235796444
0.8396498511747366
0.8820774260932274
0.8407744732463462
0.8741123649268394
0.8769689370747944
0.8288190943720225
0.839989617192574
0.8443366194062945
0.8199547770717421
0.8178500324947138
0.8347711430070424
0.8905439447599601
0.8974416927940881
0.8040674483890012
0.8140563877608913
0.8637247166432965
0.8158291969039985
0.8409322178305025
0.7761155875788759
0.8630743432070439
0.8634069844121268
0.7856152093696546
0.7886698267899576
0.8276014086926885
0.7506733305266556
0.7920526683918336
0.7799412204774274
0.9848290101245032
0.9975094458260647
0.7760711719939775
0.7712994415118538
0.9409082670794557
0.7580992121552129
0.933314592659622
0.7626169856497855
0.9444829546757254
0.9528549574199181
0.715859948807511
0.7630997985970474
0.8136210497523095
0.7871441987299622
0.7983341789555318
0.7426379632267976
0.8240653147281491
0.7948459500217623
0.8082096430552068
0.7207075400270291
0.8212122665566834
0.8244791209757648
0.7735228604833394
0.8060090796088076
0.8591432995740036
0.8718718118451443
0.7283236664862414
0.6767600723324704
0.6323786788234755
0.6463018079487439
0.5888195033544225
0.5702564133542226
0.5897409807463122
0.7688161954234961
0.699626313426478
0.7631781305970182
0.5895694989804992
0.5570577964369361
0.6154673746207028
0.6015187620773396
0.6145184605827039
0.5711307668794637
0.47768389450286647
0.544207016897887
0.606799798101637
0.5696072092124054
0.5819693525759425
0.5587253762300741
0.6313912511834008
0.6650077893046713
0.5578059984133843
0.5103436493442488
0.586620531751057
0.5395164572356271
0.5658950959520611
0.5420349977824995
0.6127170584114422
0.6326573323180915
0.5149797882970605
0.5223874964924864
0.5745462555592822
0.5236814468518773
0.5563997315050384
0.529395020967195
0.6038318755557446
0.6212772426089086
0.5015391503312546
0.49535603232331016
0.5709000904840206
0.5148300045627294
0.5545268257714335
0.5254614503879856
0.6013590058873085
0.6161442669047886
0.49144545851478505
0.4838681783986279
0.5719544775978772
0.5141977906355495
0.5572100877968907
0.5285187762180109
0.602331430089262
0.6153626936661063