# vtk DataFile Version 1.0
Tissue data
ASCII

DATASET POLYDATA
POINTS 1593 float
0.0947886 -0.755524 0.811127
0.0722343 0.615576 0.908802
0.263638 -0.89149 0.6249399999999999
0.239513 -0.875565 0.655141
0.21555 -0.858631 0.683871
0.191924 -0.840464 0.7113929999999999
0.169172 -0.821115 0.737668
0.146015 -0.80083 0.762519
0.121445 -0.779513 0.787014
0.138505 -0.743032 0.814452
0.178417 -0.730588 0.816451
0.217899 -0.717069 0.817417
0.25854 -0.702179 0.817276
0.300226 -0.685898 0.815875
0.3428 -0.668199 0.813092
0.386062 -0.649051 0.80882
0.429775 -0.628432 0.802964
0.473674 -0.606336 0.79545
0.517474 -0.582783 0.786222
0.560871 -0.557824 0.775247
0.603558 -0.531542 0.762522
0.645228 -0.50405 0.748073
0.683179 -0.477275 0.732984
0.719024 -0.450302 0.716858
0.753378 -0.422722 0.699496
0.786777 -0.394096 0.680576
0.820266 -0.363272 0.659303
0.851568 -0.332345 0.636927
0.880487 -0.301449 0.61385
0.907143 -0.270895 0.589825
-0.286683 0.890346 0.618887
-0.25742 0.874852 0.651219
-0.227645 0.85802 0.682075
-0.19774 0.839581 0.711629
-0.168589 0.819171 0.740241
-0.138841 0.797191 0.767506
-0.108148 0.774691 0.793284
-0.0763643 0.750202 0.81748
-0.0456078 0.724837 0.839574
-0.0155888 0.698882 0.8594769999999999
0.013415 0.672525 0.877265
0.0425535 0.644905 0.893639
0.0962909 -0.722845 0.836679
0.0974366 -0.689703 0.860309
0.0983271 -0.655624 0.882498
0.0990035 -0.619263 0.904039
0.0994863 -0.58061 0.924748
0.0997969 -0.539687 0.94444
0.0999557 -0.496535 0.962936
0.0999776 -0.451225 0.980065
0.0998712 -0.403853 0.995665
0.0996429 -0.35455 1.00958
0.0993004 -0.303488 1.02169
0.0988628 -0.250866 1.03187
0.0983638 -0.196915 1.04003
0.0978494 -0.145253 1.04583
0.0973782 -0.0939622 1.04977
0.097004 -0.0422116 1.05199
0.0964696 0.0107701 1.0525
0.0945631 0.0666946 1.05143
0.0927547 0.12156 1.04832
0.091067 0.175153 1.04329
0.0894331 0.227254 1.03643
0.0877786 0.277686 1.02783
0.0860613 0.326376 1.01761
0.0842575 0.373179 1.0058799999999999
0.0824102 0.417973 0.992791
0.0805205 0.460688 0.978469
0.0785839 0.501292 0.96306
0.0765984 0.53979 0.946698
0.0745037 0.577697 0.928751
0.117856 0.604501 0.910396
0.160412 0.592927 0.910162
0.201286 0.580599 0.909057
0.243358 0.567002 0.906645
0.286502 0.552116 0.902857
0.330545 0.535907 0.897574
0.375274 0.518355 0.890682
0.420434 0.499463 0.8820709999999999
0.465735 0.47926 0.871648
0.510867 0.4578 0.859339
0.555506 0.435168 0.8451
0.599328 0.411475 0.828925
0.642013 0.386852 0.810845
0.680814 0.363029 0.792187
0.717377 0.33918 0.77244
0.752336 0.314942 0.751345
0.786215 0.289929 0.72855
0.820109 0.263175 0.703067
0.851647 0.236475 0.676543
0.880745 0.209983 0.6492249999999999
0.907389 0.183847 0.62139
0.931693 0.158662 0.592814
0.0499815 -0.746794 0.822489
0.00617271 -0.736948 0.831937
-0.0373517 -0.725978 0.839596
-0.0822266 -0.713582 0.845563
-0.12811 -0.699898 0.849746
-0.172672 -0.684628 0.85224
-0.216503 -0.667837 0.853958
-0.261354 -0.649501 0.854164
-0.307008 -0.629673 0.8527939999999999
-0.353196 -0.608358 0.8497439999999999
-0.399603 -0.585578 0.844943
-0.445897 -0.561386 0.838338
-0.491734 -0.535867 0.8299
-0.534059 -0.510814 0.820312
-0.574574 -0.485393 0.809399
-0.613937 -0.459219 0.797026
-0.652726 -0.431852 0.78295
-0.692223 -0.402178 0.766462
-0.729666 -0.372171 0.748557
-0.764905 -0.342038 0.729402
-0.797845 -0.311978 0.709174
-0.828425 -0.282175 0.68807
-0.856642 -0.252798 0.6662669999999999
-0.882483 -0.22398 0.643997
-0.905994 -0.195809 0.621517
-0.927421 -0.168704 0.598511
-0.145214 -0.926545 0.615254
-0.112841 -0.912515 0.642463
-0.0802145 -0.894597 0.6709539999999999
-0.0493657 -0.874643 0.698549
-0.0194087 -0.853172 0.724569
0.00953918 -0.830548 0.748697
0.0376293 -0.807174 0.770706
0.0657908 -0.782324 0.791423
0.334643 0.87743 0.61353
0.311674 0.859618 0.647936
0.288112 0.840423 0.680926
0.264301 0.819922 0.712341
0.240551 0.798031 0.7423069999999999
0.217069 0.774821 0.7708039999999999
0.193661 0.750462 0.797778
0.170713 0.725191 0.8230459999999999
0.147337 0.699241 0.846506
0.123572 0.673261 0.868343
0.0983651 0.645542 0.888952
0.027878 0.602853 0.918146
-0.0154077 0.58963 0.925334
-0.0583059 0.575848 0.930617
-0.102409 0.561031 0.9342
-0.14666 0.545241 0.9358799999999999
-0.190467 0.52874 0.936201
-0.235299 0.510521 0.935151
-0.281048 0.4908 0.9325559999999999
-0.327456 0.469613 0.928276
-0.374219 0.447008 0.922199
-0.420998 0.423063 0.914233
-0.467437 0.397894 0.90431
-0.513178 0.371651 0.892393
-0.555197 0.346202 0.879394
-0.595213 0.32069 0.865012
-0.633888 0.294744 0.849057
-0.671792 0.267961 0.8312269999999999
-0.710165 0.239307 0.81067
-0.746335 0.210718 0.788656
-0.780184 0.182376 0.76539
-0.811639 0.154445 0.741086
-0.840673 0.127067 0.7159679999999999
-0.867303 0.100365 0.690251
-0.891599 0.0744643 0.66412
-0.913606 0.0494403 0.637815
-0.933409 0.025311 0.611554
-0.951173 0.00217287 0.585327
-0.938403 0.110217 0.59481
-0.936687 0.0674575 0.603582
-0.910172 0.271734 0.587585
-0.914151 0.225805 0.6
-0.916324 0.180602 0.611163
-0.916826 0.136262 0.621225
-0.91601 0.0926146 0.629891
-0.876301 0.348783 0.598209
-0.883127 0.30191 0.612587
-0.888231 0.255302 0.6252989999999999
-0.891481 0.209135 0.636837
-0.893024 0.163613 0.647131
-0.893051 0.118737 0.656179
-0.835779 0.42713 0.60554
-0.845561 0.379991 0.622008
-0.853604 0.332663 0.636716
-0.859758 0.285311 0.650143
-0.864152 0.238284 0.662106
-0.866792 0.191747 0.672749
-0.867816 0.145783 0.682096
-0.788706 0.505336 0.609
-0.801409 0.458772 0.627622
-0.812401 0.411485 0.644519
-0.821487 0.363687 0.660131
-0.828802 0.315774 0.674161
-0.834304 0.267981 0.686719
-0.838069 0.220546 0.6978139999999999
-0.840164 0.173573 0.707535
-0.735983 0.58123 0.608165
-0.751103 0.536716 0.62873
-0.764895 0.490312 0.647938
-0.776808 0.442885 0.665951
-0.786991 0.394856 0.682342
-0.79537 0.346491 0.69717
-0.801991 0.298096 0.710388
-0.806865 0.249886 0.722068
-0.810058 0.201994 0.732273
-0.682317 0.648901 0.603439
-0.697992 0.608766 0.625335
-0.712439 0.567173 0.645952
-0.726552 0.52123 0.666635
-0.73925 0.473973 0.685702
-0.75029 0.425876 0.703127
-0.759661 0.377277 0.718828
-0.767314 0.328448 0.732849
-0.773256 0.279624 0.745235
-0.77752 0.230922 0.756063
-0.642004 0.675384 0.61821
-0.658574 0.635608 0.640631
-0.673667 0.594245 0.662234
-0.68747 0.55071 0.683202
-0.700294 0.504128 0.703581
-0.711886 0.456364 0.72211
-0.722002 0.407817 0.738832
-0.730533 0.358815 0.7537739999999999
-0.737412 0.309584 0.767016
-0.742645 0.26022 0.7786379999999999
-0.581847 0.738428 0.607156
-0.600523 0.700534 0.631594
-0.617677 0.661379 0.65466
-0.633467 0.620517 0.6769499999999999
-0.647551 0.577565 0.698874
-0.660494 0.532396 0.71984
-0.67236 0.485564 0.739255
-0.682965 0.437579 0.756922
-0.692123 0.388829 0.772827
-0.699695 0.33956 0.787046
-0.705635 0.289772 0.79969
-0.536134 0.763405 0.618409
-0.555109 0.7261 0.643895
-0.572903 0.686861 0.668527
-0.589561 0.64588 0.691971
-0.604879 0.603137 0.714343
-0.618876 0.558709 0.735497
-0.631572 0.512796 0.755224
-0.642904 0.465682 0.773375
-0.652743 0.41769 0.789899
-0.66086 0.369042 0.804918
-0.667008 0.319476 0.818749
-0.489792 0.786224 0.628267
-0.508524 0.749906 0.654877
-0.526438 0.711414 0.680601
-0.543496 0.670842 0.705197
-0.559615 0.628409 0.728433
-0.574639 0.5843 0.750217
-0.58847 0.538752 0.770423
-0.601026 0.492055 0.788937
-0.612178 0.444548 0.805709
-0.621649 0.396635 0.820829
-0.628642 0.346507 0.835579
-0.425764 0.839485 0.607753
-0.443271 0.806957 0.636723
-0.461438 0.77185 0.664169
-0.479195 0.734385 0.690815
-0.496369 0.694668 0.716346
-0.512833 0.6529 0.740539
-0.52846 0.609315 0.763197
-0.543123 0.564156 0.7841859999999999
-0.55672 0.517692 0.803396
-0.569188 0.470219 0.820735
-0.580481 0.422039 0.836149
-0.589225 0.372388 0.850839
-0.379302 0.858121 0.61321
-0.396749 0.826384 0.642691
-0.414125 0.792209 0.671495
-0.431555 0.755759 0.6990729999999999
-0.448637 0.717035 0.725488
-0.465207 0.676167 0.750574
-0.481131 0.63335 0.774139
-0.49629 0.588816 0.796019
-0.51058 0.542809 0.816093
-0.523927 0.495567 0.8342769999999999
-0.536324 0.447261 0.850521
-0.547841 0.397713 0.864889
-0.333008 0.874971 0.61692
-0.35012 0.844017 0.64734
-0.367033 0.810937 0.676847
-0.383915 0.775517 0.705358
-0.400716 0.737841 0.73263
-0.4172 0.697984 0.758567
-0.433212 0.656099 0.783005
-0.448625 0.612384 0.8057799999999999
-0.463333 0.567065 0.826758
-0.477254 0.520355 0.845846
-0.490327 0.472402 0.863014
-0.502491 0.423106 0.87835
-0.303663 0.860117 0.650199
-0.320166 0.827997 0.680477
-0.336582 0.793665 0.709714
-0.352971 0.757061 0.737802
-0.369213 0.718265 0.764558
-0.385144 0.677397 0.789835
-0.400625 0.634627 0.813477
-0.415546 0.590157 0.835344
-0.429816 0.544188 0.855338
-0.443354 0.496871 0.8734149999999999
-0.456029 0.448211 0.889645
-0.273685 0.843614 0.682257
-0.289703 0.810273 0.712231
-0.305693 0.774726 0.741065
-0.321593 0.736996 0.768608
-0.33731 0.697179 0.794694
-0.352706 0.655421 0.819173
-0.367669 0.6119 0.841903
-0.38211 0.566802 0.862779
-0.395933 0.520283 0.881747
-0.409 0.472408 0.898843
-0.243406 0.825522 0.712868
-0.259094 0.790918 0.742489
-0.274625 0.754212 0.770801
-0.290046 0.715438 0.797673
-0.305233 0.674714 0.822959
-0.320091 0.632196 0.8465199999999999
-0.334546 0.588047 0.8682489999999999
-0.348495 0.542422 0.888084
-0.361799 0.495418 0.906033
-0.213353 0.805749 0.742129
-0.228522 0.769973 0.771239
-0.243625 0.732197 0.798886
-0.258524 0.6925 0.824951
-0.273145 0.651008 0.849309
-0.287481 0.607848 0.871857
-0.301414 0.56317 0.892528
-0.314802 0.517087 0.911313
-0.183401 0.784372 0.770054
-0.198258 0.747497 0.798473
-0.212837 0.708781 0.825298
-0.227103 0.668341 0.850392
-0.241219 0.626184 0.873722
-0.255018 0.582471 0.895199
-0.26835 0.537331 0.914797
-0.154078 0.761488 0.796411
-0.168387 0.723516 0.824152
-0.18211 0.684198 0.849945
-0.196013 0.643103 0.873961
-0.209595 0.600317 0.896224
-0.222753 0.556105 0.916614
-0.123587 0.737224 0.821936
-0.138035 0.698359 0.848176
-0.151878 0.658559 0.872686
-0.165421 0.61682 0.895608
-0.178299 0.573354 0.916884
[...]
CELL_DATA 3055
SCALARS gaussian_curvature float 1
LOOKUP_TABLE default
1.13255453692555
1.2349727233592618
1.011861413663543
1.1080766838635423
1.0731883791383126
1.016046402843655
1.1584329608916253
0.947438718256004
0.9874070898702627
0.9084975775179684
0.8166207044806402
0.8297650024169607
1.0721642982000037
1.030071958352677
1.097523408834713
1.0656683324823857
1.0440661508075515
1.0724584898151632
1.015846023834568
1.0848657396462773
0.982885945582805
0.9781946287329557
1.023974449146589
0.9623042187068027
1.0483440984977666
0.9788038904416978
0.9689921381847029
0.9759093822615874
0.9810298176687331
1.0062821068097016
0.9387875155252294
0.9075787563806703
0.9134031172253564
0.9316880724318481
0.9468404504287915
0.8478767666997603
1.0914253554097795
0.9788513844849682
0.9612460487539387
0.9469318361206183
-1.2892078380411118
-0.9454729185464456
8.093873656468299
0.8809171845346032
1.236473803747201
0.8873610029231136
0.8991827026410448
10.262968823413637
21.55136639064768
0.8914042358416461
0.8903743802112671
1.2783128786773246
0.731009539216081
0.8824720936007183
0.9495168327220794
0.8850057679826449
0.9402288073860747
0.8748650607654171
0.8902410213948552
0.7915266875067504
0.7830316323558397
0.8684414757926443
0.804845386080109
0.9177475607552352
0.7989284316392701
0.8540713341959939
0.8630285935506933
1.0513841134705928
1.0287773895612293
0.9155816005533275
1.0397620725529784
0.8134996530907347
1.0564992542063505
0.8621806716154559
0.849976490220713
0.9952541128860227
1.0009591993627982
0.7395071655281528
1.0224751382580273
0.845254181592882
0.8658457402175921
1.2133965019722943
1.2029126582536618
0.8537600359577184
1.0357415165274722
0.8751663959501219
0.8683846583557295
0.8766467204118126
0.8247113582544208
0.9008843455559679
0.8373354435740993
0.8435879239119932
0.8228586649378302
0.820849083219641
0.8433023798007983
0.8555720951972703
0.8381758540013886
0.8235118449350748
0.8163372287176973
0.8153608018709204
0.8101957673717322
0.831977029363882
0.8372907855933365
0.8095149953384007
0.8260110211256215
0.819314394790988
0.804622377831105
0.8120707442570456
0.8025437617963509
0.8321456723548148
0.8366572638635545
0.7982170463938305
0.796968202555161
0.8211860941801159
0.7996169239194124
0.8149460662813486
0.8029038784813396
0.8368273535248423
0.8405432811655988
0.7914273553601581
0.7879488617998223
0.8276578892059003
0.8017317282199925
0.8220217441479853
0.8081377709620865
0.8440869554691706
0.847016391889345
0.7916812254457911
0.7846638071478838
0.8358754916855111
0.8073707153438048
0.8305468735386867
0.8159260703828792
0.852389640354499
0.8549649590802433
0.7965596176539947
0.7872761704980751
0.8450586215419766
0.8158169630130367
0.8408691693300889
0.8262483139569564
0.86123146620446
0.8632338668701576
0.804666418936596
0.7939644286166282
0.8554349868963215
0.8263807014723946
0.8517080910404875
0.8372746609896928
0.8706784850286259
0.8722855121248765
0.815071489275036
0.8037885576831569
0.8653695681981264
0.8373350344453718
0.8625186013477026
0.8489174976457425
0.8792806050853066
0.8808626260599719
0.8265145401704606
0.8151449545174231
0.8753695601109448
0.8494168073270147
0.8717344294739079
0.859382780391938
0.8874045632299155
0.8884646413538533
0.8391096023157752
0.8277897983595917
0.8805141798863783
0.858309235322639
0.8757367692079356
0.8658834737261663
0.8917994068333144
0.8950546595398146
0.8497322551384259
0.8404985951964853
0.8828279030219638
0.8657449702147024
0.8806751105959456
0.8734454732704536
0.8926721242992689
0.8968662174321769
0.8588101251275515
0.8503716484548023
0.8881006596231599
0.8756445712949134
0.8887676382335212
0.8835411872307667
0.8928784850108021
0.895297157260893
0.869760313093116
0.8606263699815053
0.893760794457088
0.8881427134231658
0.8972725252910847
0.896880895259917
0.8962427432545024
0.8960274124185779
0.883760890127576
0.8732751057333795
0.9006334795486426
0.9032503108553289
0.9046072986784128
0.9076157600162668
1.173423217236557
1.1725442117764135
0.8991255248495675
0.8883742859585657
1.1676706054799981
0.9123786316584707
1.1716113868216833
0.9133109516623019
0.7533599458944519
0.7630863767807808
0.9115531438388775
0.9026654861909122
0.7634749399495214
0.9179294729384373
0.7575529886893785
1.1703079568376757
0.9193383155177993
0.9138943064220708
1.1799850363885804
0.6708209345758762
0.9302365905789292
0.9219683536073865
14.62417140949589
15.136297490645008
0.9331985699153433
30.253952158556988
-3.598464753834475
6.042908692734022
7.6220566580817515
0.8854166787342432
10.513348458888714
0.8921217718236698
0.8786801054096438
12.1074992487085
24.69137617651737
0.8980126662536521
0.8995738243116829
15.235911409045869
0.8892707059213204
0.8860660777691485
0.8823282486048091
0.8925652868666634
0.87795497828718
0.8934020317089384
0.7213359327388461
5.436512910536497
0.8612186948992895
0.752954711171695
0.873389158750939
0.7548881367614904
0.8530539484558863
0.8628477745272656
0.9689442894034355
0.9438247200681014
0.8803247410547896
0.954323182166168
0.7827593757028446
0.9752588388036715
0.8561021594256318
0.8410018306783781
0.9549774776670573
0.9715320104941203
0.7058026808590885
0.9911613267180494
0.8376249175785175
0.9304841003366515
0.8050371240282479
0.8577712372428461
1.1533766784269956
1.1381284860135072
1.0842312716377882
1.0927111657206796
1.1846241410700438
1.100244852394801
0.8971612903144671
0.7497893794243558
1.0093241746878148
1.0093124610127329
1.0999251444583868
1.0204794193434665
1.0071051800249031
1.0120387435852256
0.9815557026909018
0.8791847179792376
1.056469293026024
1.0528477350444936
1.0138836163093488
1.0378404152266738
1.0039443770990826
1.022967612456085
1.0656030246999308
0.9404551466480003
1.047284300863978
1.0574725029050873
1.0007550599033643
1.024068361016823
1.0034714623455083
1.0077615281019647
0.9690037399127372
1.0239124654990377
1.0309834794253327
1.0393266165018988
0.9909552054669959
1.000365706630598
0.9831640747485084
0.9639290116363939
0.9624888871339772
0.9767998270138538
0.9603721621123358
1.0557744631401942
1.046418242975767
1.0672745461028814
0.9891920991651186
1.0297852911855496
1.0527923096520437
1.0199814640664961
0.8663390769194622
1.0327746007085485
0.9572146604992777
1.0022545183972906
1.0329146486434588
0.7914958190572794
0.9818157255258653
0.8345973984084452
0.9901885259000369
0.9185301389918875
0.9634312482576455
0.9966631777711235
0.7634774077167112
0.811251411945361
0.9369698313390238
0.8007683704153783
0.9404903214944997
0.8759472474790035
0.9189266475754395
0.9537608648682327
0.73628202216075
0.7829238000455252
0.8877973119444671
0.7664499760356314
0.8870929674043898
0.8302887055110504
0.8709421333100049
0.9055919590964532
0.7095444351318054
0.7545553583205491
0.8358168182221489
0.7309572135506521
0.8311868446872257
0.7831315019090683
0.8210232771935693
0.8554442477413479
0.6827125008590098
0.7251384519155821
0.7823963636404534
0.6958767069158622
0.774732680567569
0.7362683666211353
0.7689911126836797
0.8029880527018723
0.6569112614431258
0.6959213437446898
0.7320009464699615
0.66167571426477
0.7201838330337743
0.6883229147750166
0.7203567782703798
0.7496832614112137
0.6315410919686045
0.6671682988522335
0.6772710155433577
0.6248458624186539
0.6626626770470027
0.6420984421810567
0.6675461963992053
0.6988148456900403
0.6057747226918708
0.6391171527520678
0.6277184040302134
0.5933434250604821
0.615259072940907
0.6014483288371216
0.6196893001449734
0.6449087540176103
0.5825167171593815
0.612200594553173
0.5824931016373607
0.564697047704989
0.5646362983327027
0.5606509885041164
0.576376860925894
0.6011137283442003
0.5617023172790307
0.5876268905100628
0.5339920353421688
0.5326035017887285
0.5139138384931619
0.5165106147683078
0.5286318502180012
0.5531598724970684
0.5378598917300268
0.5629126480194564
0.48792192793635236
0.49972136769644393
0.47216397565565105
0.4813666391405965
0.4858611635543339
0.5064928889869759
0.5102871703986664
0.5323328074118288
0.45592314754549046
0.4812989854776144
0.44731550938212306
0.46348868382930153
0.4500136730261523
0.46419373675429454
0.5004644239089142
0.5110978802741191
0.43981095266575987
0.44581558481737427
0.41288850688883966
0.4027199645932756
0.43525551130921836
0.4368505935062435
0.452632053478072
0.48947059092129913
0.4146985337161702
0.4144130935602984
0.42410232104407775
0.43398542318377
0.4380995845973925
0.43173411641352044
0.46912681872129847
0.4642501584149734
0.4593072807554387
0.4799144146023221
0.4725143165355969
0.483238348242788
0.4533826176616443
0.44157870883150563
0.4962008766565018
0.5049856103989498
0.48240891957587356
0.49790804613454337
0.500004855876728
0.5047799507282067
0.4803624737860477
0.4645432076519765
0.5139655893568025
0.5155823535192268
0.5153471714280703
0.5183592383899531
0.5404709084778601
0.5387078805882641
0.5133141040646718
0.49592534272350364
0.5254649880903781
0.5279432436508907
0.5569159242911628
0.5455558195042514
0.5810458935127422
0.5714488166154267
0.5491091629063332
0.5306310797296321
0.5454465725790669
0.5457043833635048
0.5949174856567511
0.5892822104224034
0.6183223781808667
0.6222841798438346
0.5941279850762358
0.5724496315473973
0.5772439537257219
0.5593013129935607
0.6417907823092047
0.6472382305666665
0.6627605937145833
0.6642462403090773
0.641763285072128
0.6175053803632746
0.6272804638653904
0.5902881564458768
0.6902008705187338
0.6954197566714154
0.7089184540092682
0.712651693567456
0.6955187598424067
0.6680509858011795
0.6707744555973638
0.6196431725337497
0.7407234481319017
0.7498967090732456
0.7582143327605891
0.7636543541437453
0.7440461425974934
0.717559037798533
0.7144778291776479
0.6525875125978068
0.7899551676979912
0.8009344328403405
0.8077190256354421
0.8132582693946353
0.7952636360438055
0.7668454955719952
0.7574488045798209
0.684749845987628
0.8415943789436735
0.8525401278985963
0.8595324453276567
0.8649389505233862
0.8497181048329525
0.8211512198705353
0.8020892196779317
0.7193217329134509
0.8960718106450429
0.9073026766854586
0.9027198579661204
0.8743042185380131
0.8466334775781331
0.753818843195396
0.9223711242971366
0.7932922617371205
0.7430896969417735
0.7900686632000609
0.7413075442663768
0.7591776464184303
0.9111280282295371
0.8013006414254471
0.7522544796098877
0.7684351026703615
0.7681500597884863
0.8069326535072212
0.811788624758492
0.7114245626978943
0.7581599257037762
0.744603996543227
0.7468491446113346
0.7335782583326607
0.7722892698100042
0.7881964588583638
0.740311864360397
0.723028010693663
0.7526210045154406
0.7254490193291498
0.7417523817806579
0.7278512828730413
0.7676830354335993
0.7760405196357214
0.7139848898140291
0.7178219966347099
0.7519267972701091
0.7226517706725243
0.7437158677009886
0.7283419400110205
0.7682694788042523
0.77315709423296
0.711636156024198
0.7053715387095942
0.758073939517893
0.7266220743190693
0.7519354872939203
0.7358575497850647
0.7760832301124889
0.7780678398297278
0.7155166644928168
0.7062209155364417
0.7687874186065813
0.735941246360974
0.7644465417883464
0.7476783070515947
0.7873004492018614
0.7884578084837963
0.724813435134481
0.7136243287323192
0.7828512558154308
0.7495866110766353
0.7800537260415161
0.7635573160394724
0.8006276842651656
0.8007360008333612
0.7382779243646882
0.7252418091131545
0.7984610379972177
0.7659811005798104
0.7965311489952496
0.7805476215798861
0.8152329212799667
0.814602037774
0.7546970974041209
0.7409646261518357
0.8143374735630988
0.7838452372573484
0.8139826194765847
0.7994739105861979
0.8303789735338485
0.8293445322487483
0.7733005431401772
0.7587189242870253
0.8314601193319562
0.8034201493456736
0.8310229861483889
0.8174917250524931
0.8449650440854883
0.8435290442008667
0.7924414462201717
0.7779505133435246
0.8446481544885818
0.8206088135793097
0.843784149794865
0.8332760699814886
0.8571230081084961
0.8570027645218354
0.8112932362635932
0.7971974446112746
0.8559915051541922
0.8369256981927042
0.8579513941158385
0.849393666967727
0.8655711160936213
0.8658386143542084
0.8281472028693644
0.8151819973424321
0.8696619025653305
0.854570930190349
0.8731681271097786
0.8666348818829089
0.8769775776584567
0.874846680148394
0.846568993140713
0.832613234594751
0.882709278672273
0.8726411203499473
0.8871452725622454
0.8836103594667893
0.8885476010549372
0.886322124585569
0.8654315153171579
0.8514233398004833
0.8945914232445014
0.8895700149028976
0.8989172655997764
0.8974307703536284
0.8982576489520517
0.8966498206524601
0.8830888320940671
0.8699195716251696
0.9038223099841833
0.9014522530687843
0.9077608954503515
0.9068773337811001
0.9030056367117802
0.9017668180349236
0.8975091018320502
0.8870064363080639
0.9097700445352903
0.9113577136115596
0.9076991815293479
0.9101704122748688
0.9101775166394154
0.9073516942820734
0.9089143860304201
0.9004908549632265
-11.472882239753588
0.9109622964114987
-11.24056570003809
1.1408076053814757
-24.62749342515493
-12.246504531767872
0.9158198576181387
0.912584645900369
1.1530861233566163
0.6678684201357413
0.9275258780602305
0.92010492129173
15.25133580602054
15.74432151911155
0.9352938879303656
30.89469737952499
1.0959380824089566
1.078378631718628
1.093132065467929
1.104954109070822
1.1006719236409204
1.0695960356582954
1.0901756620434857
1.051694005499242
1.0575201981351308
1.0471390710496205
1.086539109097924
1.0985115391842328
1.0131038565649813
1.1273701643856016
1.0825458841490812
1.1909859993338128
1.015192880058284
1.0313260643838698
1.1600523613275135
1.0865658421314812
1.1051856526067734
1.0916018548750734
1.0334127387914078
0.9113888258749763
1.0059336567201458
0.9853829117557564
0.8779333240972685
1.00999966549792
0.8619062153828285
0.7865382934603431
0.7929052564611658
0.839561247455112
0.9401969737168112
1.012451501238763
0.8415368699309285
0.7527188715677567
0.817580407434517
0.8563878376766789
0.8379507065035325
0.8301021457517486
0.7650238084774543
0.8186394158380861
0.8447969534327017
0.88296893968172
0.8082612399277211
0.8119587373700796
0.7924951313030513
0.8040411894971937
0.803547465840899
0.7806803334596477
0.8227790747215241
0.8293315988592157
0.7829916728868522
0.8061660035631764
0.7857085272920971
0.7973367997742786
0.770404690286828
0.7751943746162051
0.8189063405257906
0.8276018638112524
0.7782753461987595
0.8040466657626744
0.7833083825776931
0.7974514296594262
0.7653895584170366
0.76023575691035
0.8194563338058122
0.8254868047800308
0.7782551416893502
0.8078825004234008
0.7869450185961437
0.8024293302484613
0.7653642911881249
0.7575317442947447
0.8238796761586673
0.8288582734378306
0.7838717773653873
0.8145322437548388
0.7933279226988634
0.8085040774359975
0.770543024630989
0.7607254153605203
0.8303980942847461
0.8342923565136351
0.789485275902382
0.8184786014932479
0.7972031212415605
0.811020292095292
0.77717920802887
0.7676931020909529
0.8349526765049267
0.8408440029775835
0.7946264068132245
0.8207076179089094
0.8049489322402889
0.8172129724822421
0.7841837639386646
0.7744544104934884
0.8366795819414663
0.8434663311395276
0.8066065077454574
0.8301792634963465
0.8196453232273326
0.8309540387362686
0.7958139871715231
0.7837137687917948
0.8437094751858758
0.8467151482043282
0.8250129961262875
0.845161105978705
0.8403884614499718
0.8492278557934534
0.8156835522646941
0.7995233587918049
0.8577508092422528
0.8570739536893455
0.8471500249602837
0.8631758772725202
0.8597122186720878
0.8668986766408429
0.8374246914915677
0.8213336841196623
0.8729602244663945
0.8716019062508755
0.8641115249392552
0.8766367183908916
0.8739950560138441
0.8793337914967256
0.855917565129729
0.8417929253938456
0.8844554206711601
0.8845017261149857
0.8781229874306045
0.8863349361695565
0.8864109770745892
0.8892841903306596
0.8711254156992472
0.8588035244729605
0.8918860761033613
0.8927036337107991
0.891573117829531
0.8942680844091526
0.898072534697587
0.8978942880211382
0.8863502734903236
0.8741905610040241
0.8982687997635576
0.8988360456188695
0.9033452048531988
0.9017854167376331
0.9080306374292001
0.906649095990083
0.9002820622029526
0.8897865477081335
0.9017176208757338
0.9018272075136439
0.914084614331168
0.9071851677357019
0.9182348288161791
0.9127169236598298
0.9117482645372454
0.9026311449850313
0.9041435158344523
0.9035396482269342
0.9243758463597946
0.9126379083113518
0.9220182913543593
0.9157982584622659
0.9231176883094838
0.9146403209719456
1.1529331134009795
1.1499704768482077
0.9246890456926903
-11.26957403913508
1.1433635320362143
-11.04467951989946
0.9295042208670742
0.9255753084784325
-11.658208139595214
0.7674593630917588
1.1566007064665491
0.6375735203862849
0.9412904300861991
0.9328684308302483
15.258227652468259
15.782436199721857
0.9464717912595326
31.313685903528246
-6.731080054801651
-3.5829949571398907
4.090124610015632
-2.101444358116538
1.1642991426700855
1.1729597428823872
1.2906181460072512
-10.98950813875328
8.653269792278468
16.180426434491757
0.9463934860148039
0.7622445684676632
1.0419952533552175
1.1680554174903504
1.03029056884153
1.038692329851799
1.0885168972462966
-7.668582393863276
1.0239297864623949
0.9285868583240141
1.0721660303631744
1.0702764991400842
1.0979298927593348
1.0876386005259762
1.0496232241458077
1.0542694065152427
1.153284381281236
0.9775745809649949
1.1014751888529644
1.1003832400170475
1.114093327150081
1.123292670547523
1.0905360775737685
1.0644479752627727
1.0632714100671607
1.1335346527172412
1.1125327075486968
1.1176427422478774
1.1124423521223794
1.108353043424118
1.025348028235157
1.0159695365573453
1.1035190525780905
1.0720571509278494
11.712922660816243
-2.9001282763233585
-3.297500520818014
15.509693916732344
0.9034776953448052
0.8978265600541038
0.9046612758061683
15.875691723636276
0.8218147966671856
0.9005612346836558
1.2162705805006917
0.8955425999747285
0.8976422802486653
0.8923214512717396
0.887586415793612
0.9004521109619651
1.2687338779452726
0.8935795697418214
0.8976821046381749
0.8910214919025228
0.870740914594541
0.8766747487647547
0.8611292069349004
0.923862962007372
0.9300724323638253
0.868349801274759
0.8811325919669861
0.8889148749870116
0.8484014397289803
0.8739758233918744
0.8490079299636973
0.9118425064182133
0.9324438503008057
0.8464754249989772
0.8568120788851152
0.9089575629529105
0.8371108380389721
0.8966110122298646
0.849732180744103
0.8016261789394792
0.7895720708096445
0.8267620626416665
0.8367331398363886
0.800257864554336
0.8364470265100548
0.7923916676373088
0.8754596610787893
0.9968849114827206
0.9859066751448178
0.8161114777233113
0.8190478565600539
0.9666573494865291
0.8667650688232575
0.9750136417475634
0.7920533676428115
0.9536726560530513
0.9760340211322158
0.8222979089917379
0.8106569524605262
0.9568492238576964
0.7418164857670988
0.9232144294928619
0.8911419655070161
1.1037201973849053
1.1088999218412945
0.8144135268296815
0.8201832488738747
0.938280923350377
0.9145940981684983
0.9212515452980439
0.8854975701475529
0.9119698669009999
0.8999027169323878
0.9241077209478881
0.864858956848084
0.9680348858990848
0.891344616425559
0.8944072740101896
0.8297841545052759
1.0155204228366217
0.962311579488381
0.8413567439550713
0.8292762311624313
0.811209090778558
0.7429058875700474
0.7048263241653474
0.7011462404617504
0.8036478124631825
0.934331532632351
0.7963683198535532
0.833258714318294
0.733271143680105
0.7181121230507881
0.7383281696516102
0.7268492327258902
0.7415874605433748
0.7055813627132416
0.6781950325057825
0.7146915822002506
0.7287859977874761
0.7031469042821559
0.7127109795572164
0.6985508229776164
0.74284806373281
0.7607065524602139
0.696539011237822
0.6803242491365507
0.7199149341465694
0.6910258386517486
0.7103720168234684
0.6956430779082478
0.7352478466214021
0.7421059579773832
0.6776825494855001
0.678599640767034
0.7208392142491786
0.6904800420490187
0.7140931374926058
0.6984629042076665
0.7376941996896307
0.7425599147387533
0.677940353250707
0.6697600999436876
0.7282769350863869
0.6962434090308611
0.7238337810465718
0.7074304882759852
0.7457250622208313
0.7483962500675022
0.6838764733475626
0.6735562797260564
0.7402871979363459
0.707825415754223
0.7378301774585638
0.7217716880470276
0.7576028579382401
0.7585975681829105
0.6952038254514742
0.6824419622899379
0.7551428051408917