# vtk DataFile Version 1.0
Tissue data
ASCII

DATASET POLYDATA
POINTS 1593 float
0.0805874 -0.738624 0.809171
0.0622086 0.600607 0.899971
0.244127 -0.878927 0.634429
0.220251 -0.862067 0.663211
0.196312 -0.844309 0.690473
0.172847 -0.825405 0.716475
0.149644 -0.805437 0.741192
0.127258 -0.784657 0.764549
0.104265 -0.762576 0.7871
0.120402 -0.727422 0.81315
0.160074 -0.71641 0.815278
0.199541 -0.704261 0.816567
0.240257 -0.690703 0.816852
0.282078 -0.675706 0.815986
0.324834 -0.659223 0.813846
0.368316 -0.641205 0.810324
0.412287 -0.621619 0.805324
0.456477 -0.60045 0.798767
0.500597 -0.577717 0.790589
0.54434 -0.553473 0.7807499999999999
0.587397 -0.527808 0.769235
0.629457 -0.500847 0.756056
0.667793 -0.474495 0.742206
0.70403 -0.447876 0.72733
0.738794 -0.420595 0.711243
0.772624 -0.392223 0.693653
0.806597 -0.36163 0.673798
0.838391 -0.330883 0.652877
0.867843 -0.300142 0.631189
0.895034 -0.26969 0.608661
-0.26546 0.87866 0.628918
-0.236577 0.862163 0.659696
-0.207209 0.844233 0.689125
-0.177921 0.824704 0.717268
-0.148706 0.803457 0.744232
-0.120198 0.78075 0.769882
-0.0919474 0.757453 0.7934829999999999
-0.0650118 0.732644 0.815505
-0.0384822 0.707321 0.835646
-0.0129833 0.681572 0.853928
0.0117129 0.655732 0.870369
0.0365574 0.628909 0.885661
0.0815081 -0.706635 0.833097
0.0824036 -0.674274 0.855159
0.0831612 -0.641032 0.875852
0.0838409 -0.605588 0.895919
0.0844509 -0.567897 0.915195
0.0849653 -0.527942 0.933508
0.085348 -0.485754 0.9506749999999999
0.0855751 -0.441413 0.96651
0.085644 -0.395044 0.9808439999999999
0.0855764 -0.346803 0.993532
0.0854163 -0.296866 1.00446
0.0852208 -0.245436 1.01356
0.0850628 -0.192736 1.02076
0.0849715 -0.142235 1.0258099999999999
0.0850266 -0.0920893 1.02917
0.0853082 -0.0414913 1.031
0.0852809 0.0102887 1.0312999999999999
0.0826811 0.064888 1.03041
0.0803087 0.11841 1.02766
0.0782765 0.170711 1.02317
0.0765775 0.221641 1.01698
0.0758993 0.271266 1.00902
0.0754636 0.318513 0.999656
0.0738703 0.364127 0.988978
0.0721148 0.407835 0.977031
0.0702922 0.449538 0.963932
0.0684191 0.489187 0.949807
0.0665055 0.526773 0.934782
0.0644629 0.563736 0.918305
0.101442 0.590593 0.902242
0.14107 0.580057 0.902991
0.181961 0.568942 0.902567
0.224088 0.556601 0.900952
0.267362 0.542965 0.898063
0.311616 0.527961 0.893779
0.356626 0.51154 0.887983
0.402121 0.493681 0.880557
0.447797 0.474398 0.8714
0.493326 0.453743 0.860429
0.538374 0.431806 0.84759
0.582609 0.408706 0.8328639999999999
0.625711 0.384589 0.816273
0.6649 0.361174 0.79904
0.701847 0.337665 0.780707
0.737194 0.313716 0.7610399999999999
0.77148 0.288953 0.739711
0.805823 0.262426 0.7158
0.837838 0.235918 0.690844
0.867456 0.209593 0.6650739999999999
0.894659 0.183599 0.638737
0.919546 0.158346 0.611815
0.0421316 -0.729387 0.818952
0.00464347 -0.719451 0.827342
-0.0325581 -0.708793 0.834502
-0.0709605 -0.697135 0.840568
-0.110499 -0.684654 0.84533
-0.152081 -0.670744 0.848674
-0.196187 -0.655442 0.850874
-0.241415 -0.638661 0.851643
-0.287523 -0.620307 0.850942
-0.334167 -0.600326 0.848691
-0.38102 -0.578735 0.844801
-0.427749 -0.555589 0.839201
-0.474009 -0.530977 0.831851
-0.516714 -0.506662 0.8233469999999999
-0.55759 -0.48186 0.813546
-0.597309 -0.456211 0.802323
-0.63646 -0.429294 0.78945
-0.676341 -0.400018 0.774265
-0.714163 -0.37034 0.7576769999999999
-0.749779 -0.340477 0.739848
-0.783095 -0.31064 0.720949
-0.814056 -0.281017 0.701169
-0.842661 -0.251784 0.680684
-0.868914 -0.223087 0.659698
-0.892861 -0.19503 0.638431
-0.914704 -0.167909 0.61678
-0.125657 -0.909896 0.625938
-0.0962842 -0.893954 0.652063
-0.0687536 -0.874956 0.678611
-0.04217 -0.854579 0.704035
-0.0166472 -0.833072 0.7280139999999999
0.00808756 -0.810826 0.750308
0.0320139 -0.788116 0.77084
0.0561332 -0.764173 0.790368
0.314441 0.866988 0.6239939999999999
0.29163 0.848474 0.656628
0.268355 0.828565 0.6879339999999999
0.24481 0.807358 0.717768
0.221262 0.784834 0.746152
0.197735 0.761117 0.773008
0.174434 0.736361 0.798247
0.151031 0.710749 0.821773
0.128466 0.684582 0.843567
0.106287 0.658122 0.863362
0.0841359 0.630469 0.882122
0.0243072 0.587854 0.908022
-0.0126335 0.574934 0.91453
-0.0492601 0.561805 0.919721
-0.0869005 0.54798 0.923832
-0.127172 0.533147 0.926642
-0.170832 0.518141 0.927569
-0.21582 0.501323 0.927376
-0.261854 0.482938 0.925747
-0.308624 0.462997 0.922536
-0.355793 0.441515 0.917625
-0.402998 0.418555 0.910909
-0.449866 0.394228 0.902309
-0.496024 0.368693 0.891775
-0.53841 0.343812 0.880114
-0.578769 0.318772 0.867069
-0.61777 0.293219 0.852467
-0.655988 0.266762 0.836027
-0.69468 0.238388 0.816954
-0.731155 0.210029 0.796422
-0.765303 0.181875 0.774629
-0.797059 0.1541 0.751787
-0.826404 0.126855 0.728114
-0.85336 0.100268 0.703828
-0.877996 0.0744537 0.679127
-0.900375 0.0494912 0.654227
-0.920591 0.0254211 0.629319
-0.938799 0.00232477 0.604471
-0.925754 0.110057 0.613398
-0.923941 0.067469 0.62176
-0.897031 0.271245 0.606198
-0.900977 0.22553 0.618106
-0.903162 0.180454 0.628772
-0.903691 0.136162 0.638331
-0.902819 0.0925845 0.646683
-0.862537 0.347919 0.615904
-0.869391 0.301254 0.629703
-0.874507 0.254818 0.641994
-0.877805 0.208795 0.653059
-0.879411 0.163387 0.662885
-0.879459 0.118634 0.671532
-0.82131 0.425818 0.622336
-0.831177 0.378911 0.638171
-0.839283 0.331782 0.652427
-0.845519 0.284631 0.6653709999999999
-0.849994 0.237769 0.676894
-0.852727 0.191378 0.687097
-0.853826 0.145557 0.6960379999999999
-0.773467 0.503442 0.624952
-0.786301 0.457148 0.642885
-0.797404 0.410104 0.659289
-0.806623 0.362555 0.674372
-0.81406 0.314863 0.6879379999999999
-0.819693 0.267273 0.700048
-0.823586 0.220017 0.710723
-0.825799 0.173209 0.720047
-0.719948 0.578585 0.623375
-0.735227 0.534383 0.643194
-0.749159 0.488279 0.661853
-0.761246 0.441159 0.679274
-0.771595 0.393413 0.695151
-0.780151 0.345316 0.70949
-0.786944 0.29716 0.722262
-0.791988 0.249167 0.733522
-0.795338 0.201471 0.743336
-0.665539 0.645405 0.618076
-0.681364 0.60559 0.6391749999999999
-0.695948 0.564311 0.659177
-0.710249 0.518734 0.67918
-0.723139 0.471827 0.697653
-0.734392 0.424071 0.714519
-0.743977 0.375785 0.729718
-0.751846 0.327243 0.7432759999999999
-0.757997 0.278676 0.755234
-0.762458 0.230209 0.765666
-0.624695 0.671184 0.631606
-0.641364 0.631804 0.653321
-0.656634 0.590836 0.674198
-0.670625 0.547686 0.694493
-0.683672 0.501508 0.714207
-0.695503 0.454133 0.7321449999999999
-0.70587 0.405953 0.748327
-0.714652 0.357287 0.76278
-0.721776 0.308363 0.775573
-0.727245 0.259277 0.786781
-0.563718 0.733235 0.620241
-0.582643 0.695702 0.643743
-0.599932 0.656946 0.666141
-0.615906 0.616497 0.687726
-0.630208 0.573976 0.708926
-0.643388 0.529245 0.7292069999999999
-0.655517 0.48285 0.747988
-0.666397 0.435283 0.765078
-0.675835 0.386923 0.780457
-0.683683 0.338012 0.794192
-0.689891 0.288551 0.806385
-0.517549 0.757266 0.630404
-0.536661 0.720406 0.655027
-0.554654 0.681651 0.678792
-0.571502 0.641148 0.701487
-0.587051 0.598893 0.723138
-0.601309 0.55496 0.743603
-0.614286 0.509535 0.762688
-0.625915 0.462892 0.780243
-0.636056 0.415344 0.796213
-0.644473 0.367104 0.810711
-0.650914 0.317918 0.824031
-0.470734 0.779192 0.6392289999999999
-0.48959 0.74333 0.664933
-0.507696 0.705325 0.689769
-0.524978 0.665285 0.713525
-0.541335 0.623399 0.736001
-0.556628 0.579846 0.757073
-0.570754 0.534851 0.776618
-0.583623 0.488691 0.794522
-0.595099 0.441692 0.810733
-0.604892 0.394249 0.825331
-0.612207 0.344563 0.839526
-0.405632 0.831357 0.619049
-0.423702 0.79906 0.646689
-0.442079 0.764358 0.673216
-0.460039 0.727364 0.698944
-0.477436 0.688191 0.7235969999999999
-0.494141 0.647013 0.746964
-0.510032 0.604041 0.76886
-0.524988 0.559501 0.789145
-0.538904 0.513647 0.807707
-0.551711 0.466758 0.824456
-0.563354 0.419127 0.839338
-0.572443 0.369987 0.853478
-0.358866 0.8488 0.623921
-0.376707 0.817383 0.652164
-0.394431 0.783647 0.6797489999999999
-0.412077 0.747694 0.706304
-0.429366 0.709534 0.731773
-0.446157 0.669289 0.755967
-0.462325 0.627136 0.7787
-0.477758 0.583285 0.799812
-0.492357 0.537961 0.819177
-0.506042 0.491384 0.836713
-0.518801 0.443714 0.8523729999999999
-0.530695 0.394766 0.866218
-0.31221 0.864504 0.627175
-0.329741 0.833873 0.656289
-0.34702 0.801199 0.684539
-0.364184 0.766293 0.711874
-0.381186 0.729203 0.738093
-0.397859 0.69 0.763053
-0.414076 0.648821 0.786578
-0.429728 0.605849 0.8085019999999999
-0.444717 0.561285 0.828692
-0.45896 0.515323 0.847057
-0.472391 0.468094 0.863566
-0.48494 0.41949 0.878303
-0.283024 0.848756 0.65879
-0.299937 0.817024 0.687724
-0.31666 0.783185 0.715701
-0.333255 0.747177 0.7426119999999999
-0.349653 0.709057 0.768282
-0.365737 0.668933 0.792546
-0.381405 0.626958 0.81524
-0.396562 0.583311 0.836226
-0.411121 0.53817 0.855405
-0.424999 0.491669 0.872735
-0.438054 0.443795 0.888282
-0.253327 0.831308 0.689256
-0.269693 0.798447 0.717858
-0.285871 0.763496 0.745398
-0.301894 0.726456 0.77173
-0.3177 0.687413 0.796685
-0.333214 0.646494 0.820102
-0.348353 0.603855 0.841841
-0.363032 0.559662 0.861797
-0.377163 0.514047 0.879918
-0.390597 0.467053 0.896237
-0.223424 0.812239 0.718362
-0.239252 0.778252 0.7465269999999999
-0.254878 0.742246 0.773487
-0.270303 0.704272 0.79909
-0.285528 0.66442 0.823186
-0.300491 0.622829 0.845635
-0.315114 0.579654 0.866327
-0.329323 0.535018 0.885201
-0.342973 0.488986 0.902268
-0.19354 0.791571 0.746076
-0.208837 0.756504 0.773663
-0.223825 0.719562 0.799876
-0.238669 0.680763 0.824605
-0.25333 0.640215 0.847726
-0.267734 0.598084 0.869111
-0.281857 0.554477 0.888696
-0.295568 0.509451 0.906483
-0.163949 0.769325 0.772389
-0.17845 0.73335 0.799186
-0.192877 0.695599 0.824479
-0.207193 0.656055 0.848232
-0.221213 0.614947 0.8702799999999999
-0.235088 0.572389 0.890533
-0.248718 0.528393 0.909002
-0.134274 0.745804 0.797046
-0.14821 0.708965 0.8229339999999999
-0.162362 0.670446 0.847275
-0.175859 0.630316 0.869951
-0.189276 0.58876 0.890854
-0.202694 0.54581 0.909957
-0.105764 0.720929 0.8202619999999999
-0.118958 0.683237 0.8451919999999999
-0.131916 0.644363 0.868178
[...]
CELL_DATA 3055
SCALARS gaussian_curvature float 1
LOOKUP_TABLE default
1.020778193681566
1.053577511520495
1.0631088637995758
1.0944485799056438
1.0417850614684516
0.8617449714297201
1.039479224413021
0.8715775619729595
1.0165124971173314
0.9121770451500806
0.8226717266261256
0.8307731302284763
1.016380987701242
0.9819309839507884
1.0547952103958815
0.9627396561544516
0.9610371576829582
0.9600593445733601
1.038235359093054
0.9732882408865275
0.963605397827975
0.8972554254417312
0.9233395847434545
0.8955710891482678
0.9874127696876913
0.9569922497199538
0.8676081126394126
0.8694240631424194
0.8924582278367168
0.9107041202825699
0.8599769768253278
0.8356768998283541
0.8586355476904095
0.9593777197911479
0.835463556983638
0.8200639715479794
0.9327476592981515
0.9113257575096294
0.8439464115005781
0.8379996119799566
-1.1538776088690093
-0.8244499506583671
9.992240339376128
0.8861510216052
1.232951790156617
0.8881847255426324
0.9055578358834072
12.033582842759671
24.969301776592026
0.8927562466819794
0.8940701195913132
1.2056542468373532
0.7406637377353916
0.885969474197791
0.8831845349015387
0.8957832258627001
0.875625176225673
0.8836135277543156
0.8924340041759364
0.8596177118971295
0.8546934695597344
0.887188420846218
0.8795210653886258
0.8595761151654862
0.8720668093449211
0.8699003594080521
0.8761392179810588
0.9186371925723016
0.8911744804049395
0.8454451515921826
0.8965412102444626
0.8556939801813321
0.8942993446541772
0.8705548726794117
0.8673977748145493
1.0102487714338741
1.0248904977180082
0.8330799681461438
1.016620267763361
0.8232813542601454
0.8710050873825625
1.0480600084996476
1.0394466465798753
0.8227057032833666
1.046708372533651
0.8321647487510271
0.863016802649812
0.8643744445151216
0.7804556801703615
0.8488180004485184
0.8522730361583573
0.8500640094125491
0.8411805597982226
0.8376138911871047
0.8596856699143294
0.851574110162924
0.814175476684831
0.8442317846560713
0.8339097709735402
0.838729626464978
0.831974281393565
0.8543899459742176
0.8587513548723409
0.8270189681059159
0.8322331890698552
0.8458746252213529
0.8296625941302197
0.84032295368263
0.8308662676629097
0.857785691715026
0.8607988542767975
0.8222233552302679
0.8176442396259888
0.8507506852368636
0.8300039879886265
0.8452399435624629
0.8339499323339461
0.8641693334471165
0.865652668386556
0.8209814561709241
0.8144044969452556
0.8573413375565557
0.8335268573386816
0.8526948434513967
0.8401703744620393
0.8709102899448526
0.8722275441610129
0.8243265753592396
0.8157271185368016
0.8653358893878118
0.8400895333941862
0.8611374752446034
0.8484155882403352
0.8780732892967031
0.8790011957485848
0.8303176005111286
0.8211981595995396
0.873536753619523
0.8482847912886298
0.8701212230891032
0.8575911477624782
0.88559952061246
0.8859376421464316
0.8386247710326723
0.82898363510132
0.8815943516496608
0.8576605052881219
0.8783352009643934
0.8669314299294795
0.8924976843213831
0.8930873227537625
0.8480299794670731
0.8383006016854719
0.8888434240569087
0.8670459122693983
0.8868975771554328
0.8765038364028361
0.8985628278735687
0.8989579374527754
0.8588682865072619
0.8491232783462943
0.8966583527935215
0.8769381159586196
0.8937785535767995
0.8844520574944943
0.9043827684045209
0.904341396583092
0.8686058452598766
0.8599939399419567
0.8989092426951291
0.883129281138892
0.8939227426935479
0.887469277219616
0.9063027522321849
0.9088964787248548
0.8774222337133424
0.8704127393702017
0.8978094746147032
0.8871848904040551
0.8957790011770628
0.8916078824403466
0.9044630769517537
0.9079698545676543
0.8837247103716309
0.8783020497616421
0.9008823937191974
0.8939767919468813
0.9011657155501482
0.8984312325145483
0.9038900664021274
0.9054402761970433
0.891657176618474
0.8858280870795151
0.9042697137224012
0.9033551673884406
0.9073001298661845
0.9091200665678238
0.9073049499857437
0.9072086244964207
0.9020470883714057
0.8948035381691062
0.9114221817313292
0.9150330702498242
0.9147264644030222
0.9165174162198779
1.1683418796306642
1.1672550640288621
0.9143731408102459
0.9071520581112106
1.1640447538822847
0.9209072351653409
1.1675247975792575
0.9225963270454582
0.7165548890272263
0.724156297447299
0.9228462653924937
0.9177965170074524
0.7285887234617017
0.9273456990194371
0.7237080462179638
1.1673934923094986
0.9282487681707133
0.9254384264238873
1.1751631181937108
0.6312958175981542
0.937821159648391
0.9309546029154551
15.356793844605646
15.903983235751147
0.9411432501983363
-0.16831906543364034
-3.3590105996732773
9.864903932222717
9.624522716878909
0.8945475338829731
14.124401822526318
0.8969019351877311
0.9028416919350826
13.881919503168751
27.35701825215558
0.8994253550714943
0.9032640078050851
19.28302170829255
0.8934111721966376
0.862780036968432
0.8969180214305593
0.8603471294550025
0.8875531387247568
0.8959217229043718
0.8152883276146414
6.013969868347526
0.8844938769773414
0.8408062199151949
0.8480438146367257
0.8409270495501361
0.8717740119144122
0.8783401228957495
0.881797935795054
0.853847135981071
0.8358602972424936
0.8673187617197704
0.8324467249344901
0.8710219544983566
0.8638726194848618
0.8633362718161648
0.9841135433448178
0.9987135470550428
0.8085547847574691
0.9918194392936017
0.8901443518458177
1.034833776818084
0.8117039532827529
0.8636082157021422
1.0310034206923333
1.0270007175221356
0.9093521523385621
1.0733651409948697
0.9908742507585766
1.010197814442618
0.7712196727059333
0.7551610407384727
1.034608225336807
1.0352608425587528
0.9720288048843972
0.9666058536584935
0.9735563313033408
0.9488098163933958
0.9323231912603613
0.8130361575019118
0.9833226261077604
0.9881576712338224
0.9473793438092224
0.9576456107634372
0.8968554379812804
0.9318682198454404
0.9792924150197253
0.9657637888898079
0.9786617291696162
0.9865427072488417
0.8798404994481677
0.9452428030124818
0.8847375281059932
0.9151270498061473
0.856379863889499
0.9053078736331148
0.9548420551532641
0.9624835903924016
0.8637389913947591
0.9171626777892107
0.8448846343541754
0.842422535506741
0.994314037223302
1.001877661381021
0.8269080049630013
0.9453649968490059
0.988424657933694
1.0124262503095713
0.945683819269489
0.9469842120341856
0.9580109344780892
0.9494779263781823
0.8191074632092183
0.9712785505720248
0.9076505184431434
0.9084760771262606
0.9299839551581411
0.7559614409027173
0.9078213836502659
0.7865285790198857
0.9242069197280512
0.8665421472265527
0.8669857707600107
0.889441088429848
0.729862364263783
0.7878382813805396
0.8599513449084186
0.7523583252947158
0.8710353003381501
0.8211070532259459
0.8213504389713775
0.8447704009007551
0.7034903929546569
0.761008000130391
0.8075990996938951
0.7162256516718016
0.8139376031338665
0.7724924022239772
0.7715068215902651
0.7963421162974791
0.6757495890025671
0.7317630582166528
0.7522718218157028
0.6780206031561519
0.7528658916905518
0.7200598739408903
0.7181515272503449
0.7437250304648785
0.6463748411552314
0.7003705775538223
0.6931818054145682
0.6372517334905786
0.6886255398403806
0.6655014856660525
0.6634664821979531
0.689030273908579
0.6157247170719639
0.6668870955213551
0.6330847080647403
0.5961704770752139
0.6244682053611395
0.610678028545941
0.6062241964990593
0.6320497050580847
0.5849476247500099
0.6327516169222338
0.5728521134901334
0.555681648473358
0.5596824839572149
0.5563021957556377
0.5488202748886979
0.573575855194023
0.554442577553556
0.5982161053009352
0.5155869882120043
0.514214498359865
0.5046856814365759
0.5066934797860136
0.4955400575062918
0.5156037146500668
0.5233950860730311
0.5642437125490019
0.46727930105698123
0.4798697155357943
0.45273247136782047
0.46331508749719574
0.44362076951714113
0.4609802191910233
0.49353638029135233
0.5295407322547379
0.41701318037995616
0.44003335058231263
0.40362264720805296
0.4160602012810342
0.3989506637254372
0.4110114231734614
0.4614137638720974
0.49836216554253854
0.37434793851764414
0.39828200129426566
0.36296161830385887
0.37445812700749925
0.35488100225038544
0.3660931942862754
0.4204854420973395
0.45964405537389286
0.33796501219250047
0.3758467180053635
0.3345686101201653
0.360953807229388
0.32177242615117707
0.3273020959952768
0.4078880322137661
0.42870288201897566
0.3236040256206092
0.3293155738363261
0.29364686046123323
0.27297321156772747
0.3053875748974706
0.3001595733557033
0.3361417773828785
0.399821324984343
0.29017058640750437
0.27958823014361833
0.30188579008488436
0.31197708271450414
0.31276292225609614
0.29802274558668645
0.35616527657840796
0.35637646154906955
0.3387623651586329
0.3707702500561333
0.3518855822670112
0.3738021745348918
0.3221147932301865
0.3078305540050297
0.4031143526062395
0.4208982316994
0.35755947657805603
0.39638666322913685
0.37965148554838485
0.39656207993158504
0.34548983975215114
0.3231683735126599
0.4295903943062862
0.43935000816214737
0.39303996365174554
0.4173511106063627
0.4167057032051508
0.4241062557765677
0.3767659256069201
0.35130781067765454
0.44474476857049694
0.45715946897286863
0.4263882728458354
0.518893125872743
0.43827807757014453
0.5233823780256353
0.4114854786726083
0.3855288709870983
0.5353908893821532
0.4679976772501122
0.4531191819721724
0.47658385435186035
0.48968557253605294
0.4280459444602501
0.4521060189536198
0.42236212037836496
0.5012354729460355
0.5645317601292207
0.5153358387902572
0.4771352072826991
0.5414805265913849
0.5649195231596296
0.5007340907960491
0.47407066152329236
0.462807644762245
0.4383700005339713
0.5549020956636586
0.5916349752470846
0.5886825925446427
0.6019764755598241
0.5484311288428092
0.5204078117763276
0.5783245767311203
0.5372815621232112
0.6132718873119694
0.6429468672910181
0.6456781682089116
0.6620592651727789
0.606415279249245
0.575355017661069
0.6195231745908987
0.5652423843437403
0.6713870225557967
0.7054718769617883
0.7043959463834274
0.7220997038255516
0.6642898084839733
0.6317243460743638
0.6721371959219149
0.6053008914327861
0.7307486211301488
0.7679729467031529
0.7648421621914308
0.7843627303223109
0.7221580431541397
0.688708154335595
0.7250390894722734
0.6458311655547986
0.7948657825237698
0.8373449985167053
0.7848377310657957
0.7462235327574475
0.7846994275996559
0.6887833021743819
0.8036714835250087
0.7307494134744283
0.7660698329290705
0.7383714540027668
0.687651449112466
0.7765554785949644
0.7824976549323548
0.7815488017734695
0.71412044904389
0.763064876655843
0.7463565288165643
0.7981182266607564
0.7654265245559477
0.6613022879805782
0.7677257737924791
0.7297682833303875
0.7529642711719535
0.7317151285491404
0.7878219778304663
0.799730505581117
0.7150945876620411
0.6788646720849062
0.7681494034470164
0.724592674630273
0.7556426089513305
0.7333350227574
0.7886172761375063
0.7935283479004305
0.7068985290902287
0.6993472873407497
0.7735689713151096
0.7293301575210147
0.7640196078883725
0.7420883802882081
0.7954248405096929
0.7979663508364037
0.713235151348855
0.6995458710451959
0.7848563139753177
0.7410763992225171
0.7774151922296796
0.7555665050770435
0.8057786820180828
0.8067978451257208
0.7251996414914557
0.7101166163849869
0.7983092893567045
0.7558071045946078
0.7930933562731788
0.772439858663718
0.8183946942279983
0.8184229651437382
0.7409173226982195
0.7247999654495939
0.8137056439633028
0.7740586997796444
0.8102939214013225
0.7913004748271248
0.8320505046041737
0.8315236217853434
0.7597497408714762
0.7432411178591616
0.8298429955777764
0.7934220645594365
0.8280304861927273
0.8106030017485851
0.8464223626165237
0.8452181490809411
0.7803271503381657
0.7638966016976858
0.845824740949351
0.8134181094067492
0.8446264518785422
0.8296473047800828
0.8602557977811618
0.8590409100632856
0.8015206268304946
0.7856106049510596
0.8608306385080811
0.833115292763414
0.860543002764957
0.8478068041187494
0.8730049762273685
0.8712318464296402
0.8226503178475344
0.8072848472879484
0.8731048072287666
0.8511960788037218
0.87196485227153
0.8627923224926928
0.8828208392021369
0.8824333724576146
0.8421917617564303
0.8283375121555783
0.8814089661114095
0.8658739431932538
0.8829727061296659
0.8766102129903474
0.8890279282925118
0.8892998464260025
0.8591366828769771
0.8470507451291247
0.892296567954928
0.881696277778864
0.8957416244534047
0.8915038274166592
0.8970450092086564
0.8953401095644966
0.8756409783237067
0.8638176532189136
0.9020562757644592
0.8966273709508945
0.9050978587605579
0.9039067509837384
0.905095781610082
0.9035295715527557
0.8916363884251037
0.8804575454357112
0.9091846104168839
0.9088823820029597
0.9129192356643037
0.9138081150271986
0.9107173334704204
0.9096700876597168
0.9053627673295473
0.8953961537845354
0.9146618889606573
0.9174792178856332
0.9172351837944348
0.9191636333565156
0.912025412361554
0.9118154821187368
0.9158564832070009
0.9086657656751539
0.9170372593898997
0.9218654038852363
0.9160137926023624
0.9189134875356182
0.9183398862695701
0.915901334075002
0.9221041182928502
0.9177796130854972
-11.667091911210496
0.9205361211656029
-11.450672920924722
1.1340554165181218
-24.84496693529458
-12.260558604602046
0.9260205421990554
0.9246366229766847
1.1457045430803958
0.6285881469152315
0.9358283518693369
0.9296636463405152
16.10453481267852
16.627923370319927
0.9421005133455775
-0.5690009710817563
0.9596875268315452
0.9554989485295325
0.9581533539925866
0.967421839551114
0.978342242025005
0.9472866135143807
0.948232617963314
0.9351795324830867
0.9334711314689659
0.9327983425868931
0.9514766476117833
0.9691316963606248
0.9116886004439537
0.9897750109823575
0.9590573379206199
1.0388521494731444
0.9020153859905464
0.9110180471021916
1.0611323472875367
1.0080724974226143
0.9836302885156242
0.9656278849556724
0.9171094669711708
0.8193122518586946
0.9086482726005296
0.874402107552118
0.8823894447953389
1.02697104561799
0.7864235603572005
0.7462051529620861
0.7359627785679719
0.7935415862853337
0.8772551413203232
0.932959032019199
0.8077550594999982
0.7976237182362731
0.7767361322616549
0.841583532758486
0.8185645349177251
0.8258331276971943
0.7176796033240105
0.7677378305934501
0.8442741595969073
0.8577821196616672
0.8048024186975389
0.823885517780294
0.8059293696905595
0.8177438759938453
0.7993668002587533
0.7540723875412951
0.8376103068582066
0.8422485436135284
0.8024696201400836
0.8273337414110329
0.8089876607305
0.8220372756981638
0.7910465485090168
0.7890706796207074
0.8407553122255695
0.8448902358862946
0.8064495530438563
0.8329438450896269
0.8150656118728786
0.8285102889509857
0.7943251972080189
0.785440233263596
0.8470222908066789
0.8495372922297522
0.8129343234408407
0.8403768392319628
0.8224843365780574
0.8364821752910725
0.8002267612575912
0.7902336938537915
0.8540407739389242
0.8562526693749988
0.8210845430591319
0.8481906841078055
0.830255058582038
0.8433633609176964
0.808796264480112
0.797488495815788
0.8615810904676815
0.8635365163579096
0.8273096514433694
0.8523811618717362
0.8334617606229633
0.8454249687156716
0.8163707849365417
0.8070279134961902
0.8660473386966053
0.8704199441024414
0.830845525951518
0.8534853256829587
0.8394341238646115
0.8501107155033439
0.8220500839567353
0.813727452121353
0.8670782843489605
0.8726841042065426
0.8415645484637609
0.8610800311021801
0.8527787998383832
0.8616176908380702
0.8329347888496659
0.8220089222557341
0.8720045187303739
0.8746281617975395
0.8581892363437033
0.8731681940707214
0.8709993937957006
0.8771394605230318
0.8511506774206485
0.8371104813012336
0.8831344341873977
0.8825084185829402
0.8780266688248302
0.888481153823665
0.8883850741517956
0.8926994924232992
0.8707352780512005
0.8566694440990164
0.8953684777880317
0.893993024604075
0.8932078585403579
0.8989262960217832
0.8999510841205727
0.9013551033304945
0.8869345175966524
0.8748203424344605
0.9033511453513303
0.904011665717213
0.9038373057009876
0.9046169748619153
0.9085230030011819
0.9078986529521877
0.8995112747936236
0.8893517122695032
0.9071110546021224
0.9082740324002488
0.9128575827627332
0.9099962201263927
0.9159236641627514
0.9136866515754051
0.9105715954483843
0.9019109847794688
0.9115458069389838
0.911942319504986
0.9211067266014907
0.9141992580064747
0.92272899326063
0.9180585372529604
0.9205960244069475
0.9131269746538595
0.9120258465139386
0.9130628268954598
0.9277580491216135
0.9163361381267027
0.9279833344358897
0.9212318794486483
0.928294369329548
0.9227546112740215
0.9148728406380064
0.914421828271728
0.9335771719278638
0.9220670579556411
0.9299877222217875
0.9252290632368061
0.9347153195155411
0.9296578022315015
1.150521104658556
1.1482226286628667
0.9331154131733344
-11.84174702830383
1.1357580025668346
-11.634345779925347
0.9384105824304124
0.9364210390665431
-12.254467547575212
0.7409625906683388
1.148304047635371
0.5939389196401971
0.9478541850870326
0.9406033092755743
16.058127364609142
16.617625661709635
0.9529873541923513
33.35964850983376
-5.99299507887254
-2.235355488441937
4.6227306564845705
-2.7933182500397655
0.9799486481483373
1.064049094493848
1.0796764022513465
-12.041870162548637
7.788818014744294
16.466410418914922
0.8058025508507628
0.7565857725202118
0.9747475828343237
1.0447009373945788
0.9659313553579083
1.020257402160665
0.9924652257353666
-8.166785175113981
0.9830164340220042
0.8438458015811974
0.986443556074367
1.0221255180662268
0.9968955502796278
0.978251465468731
0.9807888061805685
0.9779942483651529
1.0918177193509488
1.0282651000728125
1.009085533123084
0.977438412965442
1.0072677538159542
0.994264718469209
1.0003727605009594
0.9825280277637048
0.9629444480410274
1.0334497018290385
1.00298171483896
0.9865596671900949
0.9942256960079634
0.9908066837058437
1.0468510294448752
1.042424295799745
0.9758050823187671
0.9690161686734666
-16.908475570430713
-2.8690866184928634
-3.2933447733280516
-13.133916819586348
0.9085368183001724
0.904844862239127
0.9079095481877975
-12.833095437787902
0.7534658993561225
0.9039058854450857
1.173093121336224
0.9045685696519634
0.9006859502331828
0.901318063910797
0.8943707585433459
0.9083761466932216
1.2094738210788312
0.8969429748507847
0.8995356399503127
0.9026686256692831
0.8828914608596267
0.8935193706103493
0.8806895111681439
0.9256114004202922
0.9280684157030643
0.881431619585475
0.8891679418867962
0.9115876162719065
0.8705853642912937
0.8995096906442769
0.8713372981058692
0.8777023120580871
0.8825768411475388
0.865323810537922
0.8739681161406205
0.8644998659469108
0.8591516121364472
0.8503550857582463
0.8731792244861905
0.8763090773496489
0.8774335978331956
0.8510883012196429
0.8580124334356931
0.8811129341904103
0.8611337603740963
0.8673275025734487
0.8245241900291905
0.8926892944330573
0.8737406574036315
0.8399917171806449
0.8439738703759347
0.8546312635194675
0.8039422644239937
0.8436443940645793
0.8357587075133637
0.9869491157127575
1.0112217150093856
0.8331225091755484
0.8325623915872937
0.9684291561338431
0.8190980294544983
0.952304371366435
0.810858931238306
0.9690534057741328
0.9765864958981589
0.7796077991095304
0.8254487219199501
0.80387406450549
0.7865843425881189
0.8055459127321124
0.7580195362874704
0.8132063029709558
0.7829696484436846
0.8261177543421893
0.7364924789160119
0.7889459839151329
0.7902566932520203
0.771056422741726
0.8026037866058846
0.8263132906027999
0.8711454512686994
0.7374752570405474
0.7086611548607533
0.7024837234591839
0.7201994287071745
0.7032283740942562
0.6893967154780882
0.6688678502256328
0.7748078561958418
0.7115581100555447
0.7411810317427819
0.696538928384435
0.6629952350888855
0.7189815288092753
0.6992694941298939
0.7222176123151419
0.6952911847914119
0.620391457886923
0.638151619624496
0.7310925379859794
0.6907108452700182
0.7189846245402286
0.698314966503649
0.7513294366775911
0.7648971114315941
0.6722959508827369
0.63825082254065
0.7334087322185832
0.6915473105848264
0.7250797865234461
0.703888022926269
0.7545902311654791
0.7604030221787363
0.6726962163005785
0.6610489778321198
0.7424179882587139
0.6997469649111654
0.7359032337937561
0.7144239740433846
0.7642801977117551
0.7681234949233833
0.6813759501769675
0.6666659139078233
0.7555401991939421
0.7128517118777146
0.7508156029505255
0.7296063753846695
0.7765358386994874
0.7787610827523426
0.6950964499334338
0.678297697364906
0.770889015869101
0.7292601922831704
0.7678547734621649
0.7474351774420904
0.7909009563101369
0.7918231828971067
0.7116376563867661