# vtk DataFile Version 1.0
Tissue data
ASCII

DATASET POLYDATA
POINTS 1593 float
0.0669709 -0.559048 0.745476
0.0486962 0.4744 0.869381
0.182446 -0.639999 0.526609
0.168064 -0.629648 0.564475
0.153504 -0.618324 0.600414
0.136994 -0.60699 0.63367
0.120873 -0.595597 0.663984
0.102871 -0.584262 0.691759
0.0853771 -0.572029 0.718853
0.0961058 -0.548875 0.754481
0.123531 -0.53707 0.763157
0.150395 -0.524689 0.769616
0.177517 -0.511162 0.7744
0.204845 -0.496536 0.777439
0.23235 -0.480884 0.7786069999999999
0.260001 -0.464294 0.777776
0.287745 -0.446846 0.77483
0.315508 -0.428619 0.769679
0.343191 -0.409684 0.762253
0.370675 -0.390114 0.752512
0.397821 -0.369982 0.740443
0.424475 -0.349367 0.726062
0.44896 -0.329548 0.710486
0.472217 -0.309824 0.693353
0.494604 -0.289884 0.674447
0.516413 -0.269402 0.65344
0.538316 -0.247653 0.629347
0.558749 -0.225957 0.60372
0.577655 -0.204462 0.576584
0.594866 -0.183226 0.548612
-0.197178 0.631715 0.511876
-0.179439 0.622668 0.55251
-0.160942 0.612342 0.591296
-0.140006 0.601574 0.627644
-0.11912 0.590359 0.660988
-0.0960201 0.578922 0.691349
-0.07394 0.566319 0.720512
-0.0512802 0.553982 0.74724
-0.0299223 0.540504 0.77301
-0.00930926 0.52612 0.79777
0.010344 0.510744 0.821589
0.0296893 0.493669 0.84534
0.0662521 -0.539478 0.77712
0.065486 -0.519344 0.808011
0.064923 -0.498337 0.838432
0.0644465 -0.475633 0.869402
0.0639072 -0.451113 0.900809
0.063003 -0.424629 0.932532
0.0611549 -0.396029 0.9643269999999999
0.0591186 -0.365579 0.995742
0.0574786 -0.332991 1.02643
0.0563657 -0.297814 1.05626
0.055305 -0.259941 1.08493
0.0529069 -0.219158 1.11193
0.0500782 -0.175676 1.13621
0.0478705 -0.13187 1.15549
0.0453692 -0.0863281 1.17028
0.0421457 -0.0386774 1.18012
0.0394563 0.0113449 1.1835
0.0416994 0.0635999 1.17664
0.0435919 0.113323 1.16368
0.0450724 0.159811 1.14609
0.0469729 0.203037 1.12502
0.0494964 0.243439 1.1009
0.0511571 0.281064 1.07409
0.0506221 0.316214 1.04591
0.049992 0.348076 1.0168
0.0502735 0.376995 0.987488
0.050611 0.403686 0.9581149999999999
0.0499383 0.428001 0.929124
0.049185 0.451413 0.899716
0.0777355 0.463398 0.877267
0.10552 0.450294 0.884697
0.132361 0.436187 0.890195
0.159495 0.421159 0.893475
0.187001 0.405446 0.894325
0.214868 0.389187 0.892634
0.243057 0.372483 0.888334
0.271499 0.355397 0.881387
0.3001 0.337972 0.871781
0.328737 0.320238 0.859526
0.357264 0.302222 0.844654
0.385515 0.28396 0.827221
0.413308 0.265493 0.8073089999999999
0.438866 0.247918 0.786431
0.463161 0.230595 0.76406
0.486567 0.213229 0.739918
0.509398 0.195535 0.713601
0.532344 0.176868 0.683964
0.553793 0.158369 0.652848
0.573629 0.140127 0.620452
0.591727 0.122263 0.586932
0.608006 0.10424 0.553033
0.0362177 -0.556109 0.755968
0.00589481 -0.551537 0.766073
-0.0242366 -0.545014 0.776139
-0.0549045 -0.535928 0.786788
-0.0857768 -0.523826 0.798125
-0.116419 -0.509417 0.809219
-0.146327 -0.493506 0.817937
-0.176078 -0.476293 0.82445
-0.205659 -0.457992 0.8285399999999999
-0.235083 -0.438823 0.8300879999999999
-0.264328 -0.418962 0.829024
-0.293334 -0.398557 0.825321
-0.322022 -0.377739 0.818985
-0.348641 -0.357824 0.810662
-0.374236 -0.338096 0.800334
-0.399237 -0.318226 0.787936
-0.424027 -0.29788 0.773261
-0.449442 -0.276318 0.7555729999999999
-0.473782 -0.254859 0.735941
-0.496918 -0.233593 0.714562
-0.518738 -0.212605 0.6916519999999999
-0.539152 -0.191976 0.6674289999999999
-0.558088 -0.171782 0.642119
-0.575521 -0.152095 0.615914
-0.591415 -0.133045 0.588915
-0.605691 -0.114362 0.561794
-0.0967429 -0.66219 0.525149
-0.0811463 -0.649762 0.562424
-0.0582802 -0.639549 0.592971
-0.0356551 -0.628607 0.620798
-0.0131716 -0.617018 0.646803
0.00814747 -0.604492 0.671776
0.0282578 -0.590978 0.696005
0.0476372 -0.575993 0.720452
0.231629 0.623458 0.510832
0.217244 0.612492 0.553585
0.20187 0.600445 0.59454
0.185862 0.587504 0.633481
0.168891 0.574125 0.670032
0.151722 0.560432 0.704075
0.133981 0.54668 0.735738
0.116985 0.532837 0.765129
0.0994077 0.519028 0.792492
0.082791 0.505002 0.818333
0.0659542 0.490363 0.84365
0.019617 0.469392 0.880158
-0.00900179 0.462206 0.890668
-0.0371953 0.452083 0.901191
-0.065406 0.438437 0.9119
-0.093331 0.421405 0.9222899999999999
-0.12137 0.402639 0.9306409999999999
-0.149609 0.382973 0.936092
-0.178023 0.362674 0.938608
-0.206574 0.341972 0.938147
-0.235242 0.321063 0.934682
-0.263992 0.300083 0.928211
-0.292749 0.279115 0.918779
-0.321399 0.258212 0.9064679999999999
-0.348123 0.238583 0.892377
-0.373919 0.219444 0.876319
-0.399187 0.20043 0.85817
-0.424291 0.181192 0.837657
-0.450063 0.161013 0.813855
-0.474735 0.141111 0.788245
-0.498155 0.121549 0.761058
-0.520197 0.102386 0.732533
-0.540758 0.083685 0.702906
-0.559762 0.0655071 0.672406
-0.577147 0.0478998 0.641272
-0.592904 0.0308909 0.609706
-0.607041 0.0145248 0.577869
-0.619573 -0.00115039 0.546099
-0.61211 0.0709517 0.557296
-0.609899 0.0426506 0.568161
-0.597769 0.181185 0.54569
-0.598449 0.150297 0.561841
-0.598277 0.119679 0.576147
-0.597301 0.0894509 0.588641
-0.595436 0.0599457 0.59993
-0.577672 0.234422 0.555856
-0.579952 0.20233 0.574587
-0.581094 0.170508 0.591681
-0.581345 0.139052 0.606687
-0.580754 0.108099 0.619804
-0.579323 0.0777832 0.631285
-0.553453 0.289388 0.56075
-0.557552 0.25665 0.582524
-0.560333 0.223883 0.60261
-0.562023 0.191341 0.620479
-0.562707 0.159131 0.636311
-0.56252 0.127396 0.650132
-0.561513 0.0962179 0.662113
-0.525006 0.344908 0.559515
-0.531096 0.312185 0.584548
-0.535699 0.279038 0.607975
-0.539068 0.245784 0.629093
-0.541257 0.212612 0.648052
-0.542424 0.179718 0.66481
-0.542667 0.147234 0.67946
-0.542083 0.115238 0.692115
-0.492757 0.399267 0.551714
-0.50071 0.367737 0.5797289999999999
-0.507228 0.334903 0.606673
-0.512392 0.301539 0.6313799999999999
-0.516249 0.26789 0.653878
-0.518947 0.234217 0.674043
-0.520582 0.200715 0.691913
-0.521266 0.167541 0.707549
-0.521102 0.134771 0.721056
-0.459376 0.448115 0.538366
-0.468187 0.419635 0.568499
-0.475618 0.389975 0.5975199999999999
-0.482369 0.3574 0.626115
-0.487862 0.323951 0.652548
-0.492143 0.290079 0.676555
-0.495273 0.256034 0.698132
-0.497341 0.222037 0.717294
-0.498437 0.188252 0.734112
-0.498664 0.154759 0.748679
-0.433464 0.467683 0.5520079999999999
-0.442531 0.43958 0.583605
-0.450448 0.410157 0.613684
-0.457057 0.379072 0.64289
-0.462596 0.345944 0.671115
-0.467096 0.312106 0.696804
-0.470536 0.277896 0.71995
-0.472943 0.243569 0.740592
-0.474372 0.209299 0.758809
-0.474914 0.175151 0.7746919999999999
-0.394756 0.514162 0.529508
-0.406442 0.487129 0.563361
-0.415989 0.459235 0.596353
-0.424348 0.429976 0.627751
-0.431185 0.39921 0.658346
-0.43684 0.366891 0.687561
-0.441487 0.333511 0.714606
-0.445127 0.299479 0.739243
-0.447757 0.265109 0.761423
-0.449383 0.230591 0.781219
-0.450068 0.195927 0.798739
-0.36535 0.533051 0.538032
-0.376763 0.506753 0.57405
-0.38698 0.478871 0.608579
-0.395871 0.449493 0.641718
-0.403506 0.418754 0.673254
-0.409903 0.386808 0.703027
-0.415118 0.353875 0.730804
-0.419209 0.320233 0.756386
-0.42219 0.286157 0.779697
-0.424003 0.251833 0.800862
-0.424552 0.217067 0.820251
-0.335119 0.551127 0.544794
-0.346433 0.525542 0.582353
-0.356816 0.498073 0.61856
-0.366118 0.468955 0.653211
-0.374302 0.438366 0.6861079999999999
-0.381373 0.406531 0.717025
-0.387329 0.373701 0.745789
-0.392194 0.34015 0.772243
-0.395984 0.306178 0.796297
-0.398612 0.272113 0.81802
-0.399453 0.236728 0.839039
-0.290638 0.591684 0.510313
-0.304254 0.568231 0.549488
-0.315713 0.543296 0.58843
-0.326207 0.516456 0.6259979999999999
-0.335724 0.487876 0.662028
-0.344242 0.457718 0.6963
-0.351755 0.426181 0.728595
-0.358262 0.393506 0.7587039999999999
-0.363777 0.359951 0.786455
-0.368348 0.325787 0.811697
-0.372035 0.291292 0.834325
-0.373926 0.255972 0.855787
-0.260144 0.605987 0.512282
-0.27308 0.583822 0.552968
-0.284798 0.559766 0.592533
-0.295337 0.533789 0.6311249999999999
-0.304965 0.505979 0.668304
-0.31369 0.476485 0.703823
-0.321508 0.445483 0.737452
-0.328407 0.413187 0.7689739999999999
-0.334397 0.379829 0.798195
-0.339506 0.345639 0.82496
-0.343803 0.310804 0.8491569999999999
-0.3474 0.275262 0.870829
-0.229024 0.61945 0.512605
-0.241975 0.598117 0.554271
-0.253722 0.574949 0.594752
-0.264323 0.549951 0.634099
-0.274006 0.523086 0.672192
-0.282856 0.494455 0.708771
-0.290897 0.464198 0.743602
-0.298104 0.432505 0.776461
-0.304468 0.399582 0.8071389999999999
-0.310001 0.365636 0.835465
-0.314723 0.330838 0.861331
-0.318642 0.295193 0.884786
-0.210819 0.611099 0.553982
-0.22273 0.588835 0.595066
-0.233271 0.564877 0.635049
-0.242965 0.539079 0.673834
-0.25188 0.511476 0.711265
-0.260094 0.482149 0.747124
-0.267555 0.451262 0.781185
-0.274244 0.418995 0.813227
-0.280154 0.385532 0.843059
-0.285272 0.351044 0.870549
-0.289549 0.315611 0.8956959999999999
-0.191824 0.601341 0.593788
-0.20227 0.578503 0.63412
-0.211937 0.553864 0.673379
-0.220858 0.527428 0.711438
-0.229217 0.499191 0.748124
-0.236899 0.469296 0.783219
-0.243881 0.437891 0.8164899999999999
-0.250152 0.405128 0.84773
-0.255664 0.371173 0.876777
-0.260341 0.336147 0.903568
-0.171262 0.590759 0.631563
-0.180968 0.567356 0.670998
-0.189836 0.542211 0.709433
-0.198346 0.515198 0.746726
-0.206233 0.486459 0.782663
-0.213481 0.45611 0.816999
-0.22011 0.424254 0.8495159999999999
-0.226025 0.391045 0.880027
-0.231127 0.356617 0.9084139999999999
-0.150026 0.579483 0.66689
-0.15879 0.555748 0.7054
-0.167531 0.530057 0.743065
-0.175626 0.502614 0.779636
-0.183111 0.473502 0.814845
-0.190104 0.442745 0.8484849999999999
-0.196433 0.410489 0.880342
-0.20198 0.376861 0.910251
-0.127544 0.567971 0.699458
-0.13678 0.543665 0.737267
-0.145131 0.517621 0.774271
-0.152802 0.489916 0.810144
-0.160191 0.460431 0.844724
-0.166946 0.429325 0.877786
-0.172947 0.396705 0.909122
-0.105981 0.555901 0.729706
-0.114841 0.531417 0.766718
-0.12253 0.505201 0.803013
-0.130399 0.477126 0.838349
-0.13761 0.447354 0.872441
-0.144064 0.415943 0.9050779999999999
-0.0834708 0.543879 0.756811
-0.0923521 0.519337 0.793304
-0.100752 0.492631 0.829564
[...]
CELL_DATA 3055
SCALARS gaussian_curvature float 1
LOOKUP_TABLE default
1.1375055026895002
1.1794276831317987
1.0498258235765592
1.0243334817244025
1.1885364541772023
1.4175727887813356
1.0291582894812659
1.424296917906897
0.9939602381645285
1.1988549513111828
1.494359962282429
1.3633218039252175
1.0135094730960146
1.1122053804083452
0.9523522440453336
1.2197588990779384
1.126172639483742
1.1682190930128658
1.035746540391827
1.2172383789430958
1.453447086164838
1.4466426351292705
1.3192851148647304
1.2834504378051008
1.3782057032978876
1.3739018188364613
1.499778337292261
1.5975870200866673
1.4649060505953002
1.292553580565261
1.14679706415207
1.0964857676765383
1.2064076070300997
1.2917554786483858
1.4420887546729106
1.3823700643228782
1.26691184674935
1.2600068894282246
1.4692646486332068
1.2794755728171854
-2.335848752406895
-2.110491289114072
16.166672619175362
1.4987570934303098
1.6064658290534606
1.5116493318527435
1.3940006041830715
19.98189015416898
32.82640662367654
1.468027119899255
1.448638809055668
1.9403827915655216
0.7534633647243687
1.4902621263148037
1.6154321801321074
1.391661985074395
1.6344807665613712
1.4706527524854387
1.4613099844923239
1.460346689982365
1.57283207654539
1.3960458453373306
1.4539180767318312
1.573309401310245
1.38836285121777
1.492661347276714
1.4686681131844135
1.4869046505362622
1.5123818502160595
1.6120399907707192
1.402196741649635
1.5097263000688468
1.4848296010402382
1.4253351425615237
1.4832200550404333
0.9297843467709146
0.9489370301434803
1.4963737194289561
1.0411403406579791
1.5770497172897613
1.4036974497204566
1.0427927041775356
1.0140695696810744
1.5817600892687955
1.0022008525946462
1.410789970351636
1.4222127038494095
1.3822807432894613
1.4739418713786203
1.339824134049364
1.4730515031432296
1.4126138841613591
1.4856099041481428
1.46510424572622
1.4592466209933115
1.3693232995416946
1.4021420596967813
1.4684543596310107
1.44187128714105
1.4723018046889176
1.4662243906208796
1.450250701821421
1.4536013641886347
1.4137339998362248
1.3936763738017304
1.4436973381492963
1.4413887408593125
1.4491533130604306
1.4529221298384851
1.4229238468082892
1.4333246555383212
1.4129649135699698
1.4096632760267116
1.4142719604460976
1.4288771042985189
1.421073538750839
1.4319098658252059
1.394993675321684
1.40910153659501
1.4100944246541842
1.4057156229048076
1.3890146409227728
1.4144279394561463
1.3956088986470563
1.410185870106063
1.369571380992218
1.3823519936958708
1.4005655444649363
1.3992647911896612
1.3660117581208808
1.3974111152598827
1.3742058384245
1.391028224104495
1.3486178448615511
1.3587717254571716
1.3917701869483345
1.3906825468033048
1.3497069610839447
1.3850515836829878
1.3578316564024173
1.3763538933214652
1.3312927310354432
1.3383976951166685
1.3830346031585397
1.3833703152684986
1.336441089753861
1.373093606398947
1.345316517872858
1.3634467975988962
1.320222628359317
1.3231989649593716
1.3752771561675423
1.3765204625656124
1.3277768418283424
1.3632412381049595
1.3366656364380596
1.3539997529886385
1.3122808998548845
1.3136021145048564
1.3677111604087684
1.3701002696713007
1.3229038105702706
1.3551992471227028
1.334381233984368
1.349342553986221
1.3097712743199215
1.3080371582142525
1.3595877028633019
1.3628581310330468
1.329574180548724
1.354316867530607
1.344930207341355
1.354711574321385
1.3168017761299031
1.3084762933151979
1.3550200205230318
1.354434162719245
1.3451288254207525
1.3577866498138342
1.3527108806510673
1.3555873380641188
1.3328981105752133
1.3199270880769949
1.3547204374217334
1.352348514921709
1.3478086133895832
1.350321026731627
1.3465485682872975
1.3461845242162895
1.3458487999620274
1.3385203523779723
1.3467347000462235
1.3489347989866147
1.3446519391455527
1.3307780756038248
1.3326755065690392
1.319165687098319
1.3387874251008465
1.3387242408150355
1.3217742584433738
1.3335943803704353
1.323917486892189
1.2964617272698389
1.3084688052775892
1.2945228651259593
1.5608529169346215
1.5637464225667654
1.288604588375445
1.302304731043474
1.5149122291522952
1.2736042044709868
1.500589363621461
1.2732272790917827
0.9023671427843574
0.9328591489520839
1.258858142924212
1.2719196646847906
0.9404035428655737
1.2499239737291739
0.8949861402883562
1.4318686556816347
1.23597597379824
1.2445332176140744
1.403082314084557
0.8373425428670228
1.2069706777707017
1.2218090194368456
8.15185911993091
8.702615504066001
1.19198729068826
17.10719856537115
-3.9246874397222933
-17.694498713672637
11.324131385041323
1.43797861474212
-12.368573707399062
1.43627849652912
1.3995374483382816
16.654646174507114
25.678754880371528
1.4196049057271314
1.387453640728508
-16.46488325139144
1.4262085095389425
1.672041757415626
1.3395183229833636
1.6220926190508855
1.4302007839266988
1.4218970619018876
1.6005393193872717
-2.7682745336824546
1.3572458766833608
1.5282328466202333
1.5396352674024707
1.428047941271821
1.4379572503939948
1.4242219710817539
1.5193839016409492
1.5417412360432468
1.5557427170289726
1.410955219592565
1.489662212699716
1.4564620413939584
1.3641417237765592
1.428745647860691
0.9478274346570341
0.9560712113570058
1.4664938313519036
1.0403879895757278
1.3391174518625326
0.9462117813921145
1.4900408842179607
1.3216082723133598
1.0193595108963436
0.972305777779043
1.2619444600426004
0.9185970263117809
1.0724719918160317
1.1220302285556303
1.542635340975909
1.6433553856618983
0.9603978454012918
0.9669841218022409
1.1490567490773205
1.2048559022851235
1.2420913408727767
1.2483322573409812
1.1581868728112013
1.3622929964832213
1.1202964657119698
1.0792716110719875
1.276418998693492
1.187332644524441
1.38039929972908
1.2850720290918247
1.2165897373921548
1.1913922033053206
1.1134746227301702
1.0899147989735567
1.4572242862235103
1.2317759568548952
1.489028186730216
1.3589071279988563
1.5088856694915826
1.3722314216958154
1.182105114790009
1.1615431652326678
1.5831388514923377
1.3203368232696109
1.6439755669208214
1.601526285426772
1.116368598790808
1.1052680614551678
1.6279100468560965
1.1539478540293862
1.0794931799469893
1.0646110293239741
1.1650888470633372
1.1489988406670841
1.1345210711531555
1.1867735118219862
1.3563889185951217
1.1732261766900727
1.2423637657238453
1.2591987774750069
1.2065419556970896
1.4593243938993097
1.288138520376666
1.378932290639149
1.2845654957579709
1.3062216769866812
1.3574250826914995
1.3149380046579269
1.447899460611996
1.41426641100088
1.35846316656122
1.3611527623738542
1.3549702885782227
1.336003703162147
1.4042397683585137
1.3996286598700982
1.3908197365430262
1.4048558211287
1.5057079764860664
1.2692490682778148
1.4857185943725568
1.2682262715803811
1.421425966266065
1.3164648801555152
1.2550014785321588
1.3514230875856628
0.5914749083449218
1.0750929467025543
0.5418392587095266
1.2429496198593344
0.23141858041255825
1.041380256220192
1.0686521939208848
1.2475379290530557
-0.4713899727289789
0.9687823453755469
0.5257251281099568
1.2647870850646745
1.8113518572634795
2.4645247607696215
0.848622094067942
1.1163486157700602
-0.35179116707833413
0.7966239576316508
0.9227113034578478
1.3320644712131149
4.338976685382897
7.499234810563646
0.6173198042703714
0.9653226803957904
0.3098827646293082
0.647140417871431
1.6866009351961417
1.6145054206829972
4.807602436584069
10.111198827873839
0.30466862990256116
0.8102885298829656
1.1096761989820456
0.6916971782798093
1.3225224738466332
0.9766389676575413
4.740916792391204
9.815561200560062
0.002389651067707138
0.5827261055020255
2.899981442743857
-0.31239666802705535
2.5920332918602362
-0.2744613127215842
10.026355460707377
12.08013708521931
-0.15705882192886703
0.4426692865436276
8.115010374869255
-0.7714579308810339
5.4802717253595
-0.5397019758089697
21.979145715671173
23.58254265062567
-0.2930316851983815
0.35930277905925656
12.096775970160428
-0.7477603725693603
6.630384946150887
-0.194177695410431
29.13009822450092
36.377729320501906
-0.4385280108272688
0.2479566316157742
14.231452523223634
-0.6196834262654007
8.3295728686909
0.3029995607631832
34.87916123029369
44.31141590756144
-0.522638193589092
0.21209989900796922
16.020051882126037
-0.43471191733542996
9.254645779999167
0.8264552884654167
40.95091477511616
53.90814446875109
-0.5451845387884247
0.2895721719864972
16.440833846013362
-0.26992075094670265
8.982238404867418
0.6996742994411045
42.029654083227996
59.77432891020392
-0.7278164185044621
0.2580869994546626
14.960336064266116
-0.6287084848228037
7.324344219458526
0.017863775795920023
38.4535156678187
58.06423824563463
-0.7416655997206114
0.1288215169855374
12.202520689941288
-0.7996500976486052
5.311092426942151
-0.38459791698513524
31.403284710711688
50.01828784378151
-0.5710178394100389
0.1335389191366786
8.58968952554272
-0.5872708686056871
3.216078139980611
-0.26519191024051
25.847894487069233
41.77006140923906
-0.1550069561336112
0.276298253725507
7.928330229186441
0.10621913617773407
4.318260358659478
-0.02258068412810782
18.77726444293811
31.32321731525879
0.46914327071602807
0.52999613676986
11.976425695063753
0.5486768719664692
6.486965877888769
-0.5999419024209285
17.141019069248376
20.33178794659577
0.8823094680106399
0.6739760464543569
12.243122358561042
0.4150475286894354
3.704909424458038
-1.0362576251038704
17.7160685049953
17.12450539850765
1.2668478096817024
0.5854909746155094
10.154149095550743
0.4411343466093929
3.6556690002312293
-1.316178699148211
16.007011141663288
15.030717617004843
1.345259016206144
0.7196673254851476
7.567277183831664
0.15566639141259786
1.248680665801258
-1.191082427238368
13.653394373538543
15.594648236050656
1.2709795850916472
0.7032591641275894
2.133450362373578
0.2554904737772808
-0.40178113057716647
0.1600220738661619
4.137490814364659
9.338838307499216
1.2856232822024005
0.9543635748658013
0.6299332415754527
1.3962272862047176
1.0976977674002966
1.3021886075862332
0.2269187747236568
1.1992448545621177
1.3088914619821521
1.102819058068716
1.0155553004574678
1.3299679799969657
1.0926234080693964
0.7717514081604293
1.4075091077261668
1.2923939110928686
1.306232383953582
1.4334839088669502
1.3459913545844746
1.4223939291618508
1.4501677930942938
1.3509067474088576
1.3555368679271003
1.3199284074827604
1.413116893850817
1.384365777282932
1.4497803997185454
1.2503555274248221
1.3577364419282953
1.2813178129901752
1.2984755778111725
1.4146603882126536
1.3591014564409583
1.409871644406826
1.251148273556468
1.2674655929702894
1.3915629226893178
1.294883853334568
1.3016006408224272
1.3989308176029849
1.3535481808157321
1.400108169630422
1.2630262554690888
1.2731997668329154
1.3704365970871697
1.358279958367675
1.3128066352667132
1.3992076318814455
1.3575024859045073
1.3973434937045495
1.2829912834646522
1.285158443660333
1.3876028025312963
1.3600091197644577
1.3281976055725926
1.403901916527575
1.3641066854781063
1.3999699886330466
1.3006783097850085
1.300167838314862
1.3973559776172888
1.379192725444114
1.3404396135236996
1.4084866192216612
1.3700748763090989
1.4022585788521202
1.317069891628979
1.3132176677958014
1.4090908091000072
1.3940282396011061
1.349656434152241
1.4110292711962666
1.3728914285827447
1.4020805630837487
1.3286209546997627
1.3256696749619
1.4136322063866527
1.4054657039208522
1.3532842404757761
1.407384532571302
1.370693436342957
1.3956045939374788
1.3334842127743212
1.3320559214288112
1.410691639427786
1.4079906051306188
1.3519816469870642
1.3964964283006096
1.3645150185632364
1.38411864228226
1.3353392348621793
1.334250996516617
1.399560542295095
1.4019758147884482
1.347515602888632
1.3814094652868505
1.3560610001338183
1.370351238813013
1.334649522836344
1.3350065263860633
1.382953828862958
1.388727119852853
1.3463790960300708
1.36735686261706
1.353734404356339
1.3604219322641335
1.3362288131897162
1.3330446372411755
1.3656670695255153
1.370205809297576
1.3475300511980084
1.3533512563872128
1.344227286116051
1.343360963397461
1.3420373048961451
1.3380913752141212
1.348992009990821
1.354372892776197
1.3335184051765507
1.328950918402319
1.3205495981771598
1.316848434121518
1.332437913076832
1.3376540477144692
1.3236374743744699
1.33368827297322
1.3096405277824599
1.2966021890810273
1.2925606691729008
1.2832234945271095
1.310201458892625
1.3200300371876064
1.2905569633819467
1.3054897643945886
1.282734023110198
1.2613699788245694
1.2648780126684283
1.2528511430285905
1.288123637134817
1.298511214307685
1.254271608834818
1.2700798988382778
1.258078485551081
1.234901048147556
1.243068330566575
1.2319177628028877
1.2718333983728625
1.2840225395148288
1.2278185948452731
1.2386703197365565
1.2388625068142414
1.2157921812509938
1.233225115450423
1.221305357650863
1.2449621871927696
1.2629229237668849
1.2084015273727864
1.2174446556223975
10.732562646744768
1.209883153239164
10.904730856838404
1.3939711211323593
20.284989543325175
10.791751692409356
1.1945373672376545
1.1985689177711458
1.3684463078172542
0.7839471030823925
1.1727212099757303
1.1829002372893258
6.917885881196776
7.485925430726477
1.15626155477057
15.054420083156401
1.2102776932426909
1.1657653699439812
1.1994755385043925
1.2090245481944812
1.1644454278298138
1.181462283518205
1.2468822328599087
1.234876297051337
1.2665860778326294
1.2077610997573847
1.2415379235597714
1.1928780841560458
1.2789217354774651
1.1734256730437558
1.1986435509823852
1.0614377077673836
1.2856725615428748
1.2679259393559263
1.0411703629436926
1.128986458432429
1.1429518141585453
1.2365857817644477
1.2485335667708477
1.479373377591752
1.2797847229729795
1.342227285862229
1.3774691287281604
1.0700657446310329
1.419089236632479
1.6064626545063536
1.5147594740555248
1.4712930811084948
1.2898762390158287
1.2561534779686314
1.4852693874783598
1.4990634575274708
1.4230717993360766
1.3953252051281309
1.4142695510946597
1.4299893498337437
1.4123613728024473
1.3748360499052454
1.3945008443172255
1.3492754532695956
1.3998574927782514
1.4167287369759074
1.4209268349436488
1.4220782804022207
1.3541610314143646
1.357862663197144
1.3994467568693953
1.4118830089163263
1.3943254168670856
1.3946603097023116
1.402279741113711
1.401463188490365
1.3612096610279778
1.3421146177406544
1.3847730382337318
1.3949090288271284
1.3846874471838735
1.380417084057209
1.389098492826482
1.3856446823231634
1.3610729973564417
1.3455495354471714
1.3721444967022305
1.3833033296668065
1.3790155543425158
1.3696378320865166
1.3809450375356898
1.3750211257830094
1.361726083053978
1.3481945717105124
1.3605465111887836
1.3682807740704517
1.3752858543936965
1.362241243691239
1.3793619387501679
1.3722412398003907
1.3638814268603543
1.3522511387138099
1.3533703754326356
1.3570589366266728
1.3823028435658773
1.3696448470561786
1.3901343989940083
1.3845971014340868
1.370866209851323
1.3565208775022712
1.3580407323466899
1.3517662568322986
1.3926079868507066
1.3839684869411903
1.3946457283849782
1.3915435260353837
1.3838026129975294
1.3698923914262766
1.3728510468755295
1.3618755466589372
1.39135562228661
1.3855009300712413
1.3865136872634372
1.3837611973976633
1.3858712905413737
1.3803560227865646
1.3751782563237214
1.3701034122222024
1.3732878268173745
1.3734402348786028
1.3602851104359328
1.3631900083629347
1.3685283357344322
1.3762698644352587
1.3641184692078574
1.3641167579793976
1.340466724967747
1.352129179426393
1.3317983362657557
1.3405558927973997
1.3350840166606321
1.3501429110458756
1.3476625244323197
1.3494015876981162
1.3146806040653922
1.3374128662306581
1.3136242222680343
1.3275989279016565
1.3087601465249392
1.3204951704181878
1.3389011890066693
1.3375775605793376
1.2958356544834395
1.3287613712920532
1.2968393587199105
1.315790369894902
1.2862309783792176
1.2980990886233594
1.3339920227810322
1.3343179021666467
1.2769569715852866
1.3187913545043441
1.2800174825270119
1.3029008542710776
1.265101938532848
1.27537964956325
1.327049371326315
1.329279038205852
1.2570907578756405
1.3052751973206806
1.2610880749649314
1.2863891426659055
1.2429469597144809
1.2540186513134137
1.3213571504534884
1.3272408242258564
1.2370171307683318
1.2908282494126977
1.2409102932938614
1.2694203442372531
1.2215291480356865
1.2314562940711267
1.3055696556606309
1.3172125020466467
1.2154580126855659
1.2678183121439408
1.2278182272046418
1.2516684757196253
1.201510590651686
1.2114748885273365
1.4794253356115719
1.4957687739528174
1.2086907255088029
12.284258287902173
1.3835180859380882
12.435235399816474
1.1860379685290403
1.1912180481909997
11.807154674359051
0.9861718856441354
1.3502564166753848
0.7984165196690464
1.164293954680607
1.1749028669635482
7.118207814765943
7.654832294707352
1.149078537615678
15.209746089280436
3.0168993838163916
-1.257186154292944
-7.783393591911656
5.598949952350192
1.313506382938065
0.9085085222107
0.8971504909079085
18.149853858111214
-5.022378507394766
-19.76026723414792
1.932237284726638
2.1225598320125183
1.1410270855203315
0.9819692242460399
1.1704194393577498
1.0227196093862498
1.0156732988971884
13.334058641348578
1.0210675624415713
1.5549797308920126
1.0619822977007494
0.9819493490348974
1.0375137080157713
1.105180589321419
1.065295034088141
1.0483783891219987
0.8602779100216195
0.9401465085685032
1.007471864459435
1.1380561729923968
1.0421858396120587
1.1051032668393728
1.0740240475695653
1.107378627513293
1.2203552665071762
1.0658082438229206
1.0984950819167705
1.142165245827983
1.150451807156701
1.1312045438405998
0.9215209928582544
0.9317639336636729
1.1592596657787617
1.2044967803049307
16.584760013059242
-2.614421076057545
-3.409248174653739
20.58711735353776
1.3614323488994875
1.3962011267592946
1.369697211237808
20.728246230354607
0.8478808364493561
1.3671141003039664
1.6483896864500287
1.4011754943871184
1.3759191224891405
1.3978129102345322
1.399060453858041
1.379506502505791
1.5156610116948155
1.3786974241714247
1.378157264324571
1.4009651325727395
1.4070470570934743
1.3993240023029643
1.4041583832001905
1.3214234930844178
1.296602278864883
1.388272756271176
1.3830644547180269
1.294646521104986
1.3967216380030716
1.3012391156539702
1.3984798516548294
1.50863082467552
1.5337666663851766
1.3958739534601863
1.384536397835007
1.4329112554634438
1.3919936572655942
1.4560502324761382
1.3178918982774293
1.3292802132503794
1.4115923770114396
1.3800506685823979
1.3856891784287475
1.3461356487728335
1.3082239186887943
1.30045593875072
1.4007025428653896
1.3472361558511154
1.3535196973413557
1.361862248622518
1.3595872395279565
1.3053839537218996
1.4143986313144934
1.357584939894609
1.3663530133725328
1.0213720505087012
1.0175445426158036
1.3025934948563611
1.3425357363409811
1.1174416454201792
1.3347036901169427
1.1334433430127455
1.341937314231585
1.1268456191011793
1.0829770103624106
1.3551329383318957
1.2749771251293536
1.6558969204858691
1.5240083333993761
1.702890638327373
1.5958186671380448
1.7691974776485266
1.7940140935456914
1.632454483203551
1.0571707177832839
1.6040934886439644
1.758532833473542
1.5848052114956421
1.7144279404280547
1.3714239429929187
1.4660917768736588
1.415531285052616
0.9123645957700045
1.3993370028778964
1.4825105135810595
1.5035205798370002
1.4570713616077509
1.3702469720705488
1.3230456350372488
1.5503642999602072
1.4392801783862765
1.4101311198543045
1.4251992671588751
1.4373907944409874
1.4989081599748078
1.3200480397971042
1.3843474689724524
1.215393774593266
1.3151196554212892
1.336279490403563
1.4209729288409993
1.3703850746745356
1.3935611475781515
1.2919017049628225
1.3029299289430467
1.3997638924074893
1.2678936309756883
1.315041033360437
1.3608198331426342
1.3377101908686004
1.3603129177471815
1.2848918607209368
1.2958581165942948
1.3121847601037733
1.3237170381057806
1.3050010061658823
1.342794325664587
1.3283059406916593
1.343496533311783
1.2888793013066735
1.2914393133698914
1.3144341049229729
1.2833176239667063
1.3126581726535307
1.3423639334048207
1.3329341587630519
1.3474493268942183
1.3006283725611734
1.3001544357400932
1.3208050137693776
1.2935773929347256
1.32505415756343
1.352196985703611
1.3442048987018644
1.3568325587108792
1.3150274774388189
1.3108776785460834
1.3396248443524534
1.3133182659076175
1.3394737721977148
1.3640181704670873
1.3574014393768747
1.3693181776372327
1.3304390379420652
1.3251434843216037
1.354728276246471