# vtk DataFile Version 1.0
Tissue data
ASCII

DATASET POLYDATA
POINTS 1593 float
0.0648301 -0.565248 0.750985
0.0481631 0.477433 0.873386
0.18161 -0.648403 0.536308
0.166173 -0.637943 0.573043
0.150663 -0.626564 0.60788
0.133949 -0.615001 0.640254
0.117526 -0.603279 0.670049
0.100057 -0.591488 0.697554
0.0828102 -0.57883 0.724409
0.093839 -0.554901 0.759703
0.121562 -0.54316 0.767723
0.148765 -0.530738 0.773791
0.176313 -0.517149 0.778266
0.204139 -0.502455 0.781042
0.2322 -0.486738 0.781984
0.260449 -0.470082 0.780968
0.28882 -0.452565 0.77789
0.317226 -0.43426 0.772667
0.345559 -0.41524 0.765239
0.373694 -0.395574 0.755574
0.401487 -0.375336 0.743661
0.428784 -0.354604 0.729522
0.453869 -0.334669 0.7142499999999999
0.477714 -0.314825 0.697487
0.500695 -0.294753 0.67902
0.52312 -0.274119 0.65853
0.545694 -0.252183 0.635056
0.566814 -0.230271 0.610115
0.586435 -0.208531 0.583711
0.604382 -0.187002 0.5565329999999999
-0.196473 0.640636 0.522021
-0.177688 0.631444 0.5614629999999999
-0.1583 0.621025 0.599097
-0.137293 0.609986 0.634474
-0.116251 0.598408 0.66721
-0.0938735 0.586439 0.697355
-0.0722022 0.573488 0.726121
-0.0503267 0.560361 0.752892
-0.0294299 0.546165 0.778606
-0.00924381 0.531042 0.803221
0.0100912 0.514971 0.826739
0.0292006 0.497261 0.850012
0.0644659 -0.54492 0.782445
0.0641465 -0.524075 0.812904
0.0639823 -0.502366 0.84275
0.0638665 -0.478917 0.873009
0.0636594 -0.453601 0.903558
0.063044 -0.426264 0.934266
0.0613762 -0.396749 0.964867
0.0594635 -0.365367 0.994867
0.057909 -0.331844 1.02389
0.0568732 -0.295773 1.05176
0.0559375 -0.257083 1.07808
0.0547135 -0.215865 1.10253
0.051846 -0.171954 1.12458
0.0488848 -0.128745 1.14206
0.046447 -0.0840653 1.15527
0.0438045 -0.0375553 1.16383
0.0417332 0.0109859 1.16666
0.0433091 0.0618576 1.16117
0.0451955 0.110533 1.1501
0.0475437 0.156543 1.13474
0.0498419 0.200091 1.11598
0.0515228 0.240896 1.09367
0.0522929 0.278908 1.06875
0.0516966 0.314355 1.0423
0.05193 0.346721 1.01494
0.052285 0.376643 0.986989
0.0513504 0.403914 0.958969
0.0501416 0.429155 0.93129
0.0490186 0.453489 0.902923
0.0772367 0.466879 0.880481
0.105396 0.454218 0.8869509999999999
0.132964 0.440447 0.8917269999999999
0.160795 0.425635 0.894414
0.188937 0.41006 0.894805
0.21741 0.39389 0.892759
0.246179 0.377229 0.888207
0.275176 0.360142 0.88112
0.304304 0.342677 0.871489
0.333443 0.324868 0.859328
0.362451 0.30675 0.844666
0.391167 0.288361 0.8275589999999999
0.419415 0.269745 0.8080809999999999
0.445394 0.25202 0.787704
0.470105 0.234535 0.765903
0.493935 0.216996 0.742403
0.517215 0.199108 0.716805
0.540659 0.180216 0.687993
0.562634 0.161474 0.657754
0.583032 0.142972 0.626275
0.601736 0.124824 0.593703
0.618668 0.106437 0.560812
0.0348445 -0.561945 0.76158
0.00524391 -0.557111 0.771703
-0.02423 -0.55041 0.7816609999999999
-0.0543525 -0.541257 0.791969
-0.0848207 -0.529293 0.80263
-0.115328 -0.51489 0.812909
-0.145558 -0.498939 0.821101
-0.175733 -0.481692 0.827094
-0.205838 -0.463374 0.830715
-0.235847 -0.444181 0.831867
-0.265709 -0.424281 0.8305
-0.295347 -0.403816 0.826597
-0.324667 -0.382913 0.820169
-0.351871 -0.3629 0.8118609999999999
-0.37803 -0.343063 0.801638
-0.403584 -0.323071 0.789435
-0.428928 -0.302588 0.775043
-0.454923 -0.280858 0.757746
-0.47983 -0.259215 0.738587
-0.503525 -0.237746 0.717753
-0.525897 -0.216537 0.695451
-0.546861 -0.195669 0.671889
-0.56635 -0.175216 0.6472829999999999
-0.584343 -0.155253 0.621814
-0.600812 -0.135908 0.595572
-0.615671 -0.116881 0.569256
-0.0956669 -0.671956 0.530197
-0.0781997 -0.660112 0.565751
-0.0560785 -0.649501 0.596145
-0.0343752 -0.638003 0.624408
-0.0129111 -0.625744 0.651063
0.00757243 -0.612549 0.6766139999999999
0.0270299 -0.598404 0.701243
0.0459538 -0.582787 0.725907
0.23143 0.632256 0.521292
0.216302 0.621047 0.562918
0.200419 0.608773 0.602761
0.184048 0.595608 0.64067
0.16703 0.581916 0.6763669999999999
0.149861 0.567837 0.70978
0.132396 0.553568 0.740996
0.115394 0.539146 0.770095
0.0982454 0.52466 0.797251
0.0817589 0.509977 0.822824
0.0650548 0.49454 0.847885
0.0193483 0.47169 0.8842599999999999
-0.00905201 0.464024 0.894576
-0.0371543 0.453831 0.904556
-0.0655135 0.440474 0.914448
-0.0940072 0.423765 0.923817
-0.122773 0.405437 0.931037
-0.151638 0.386021 0.935666
-0.180669 0.365907 0.937514
-0.209828 0.345334 0.9365209999999999
-0.239081 0.324495 0.93267
-0.268377 0.303529 0.925974
-0.297641 0.282525 0.916478
-0.326759 0.261543 0.904259
-0.353889 0.24181 0.890391
-0.380061 0.222545 0.874669
-0.405688 0.203379 0.856961
-0.431148 0.18396 0.83699
-0.457286 0.163557 0.81385
-0.482315 0.14341 0.788974
-0.506089 0.123585 0.762581
-0.528488 0.104145 0.734896
-0.549415 0.0851542 0.706144
-0.5688 0.0666759 0.676548
-0.586588 0.048755 0.64634
-0.602772 0.031418 0.615709
-0.617369 0.014718 0.584805
-0.630387 -0.00129679 0.55397
-0.622592 0.0723586 0.564869
-0.620322 0.0434549 0.575398
-0.607423 0.184904 0.553691
-0.608217 0.153376 0.569329
-0.608139 0.122112 0.583182
-0.607223 0.0912359 0.595277
-0.605351 0.0610942 0.606239
-0.586445 0.239083 0.563661
-0.588929 0.206351 0.581782
-0.59024 0.173881 0.598343
-0.590632 0.141785 0.612862
-0.590144 0.110197 0.625551
-0.588763 0.0792578 0.636665
-0.561253 0.294941 0.56856
-0.565627 0.261572 0.589615
-0.568658 0.228167 0.609059
-0.570571 0.194991 0.626339
-0.571444 0.16215 0.6416499999999999
-0.571406 0.129789 0.65501
-0.570501 0.0979954 0.666593
-0.531773 0.351293 0.567568
-0.538185 0.317956 0.59177
-0.543101 0.284184 0.614432
-0.546767 0.25031 0.634842
-0.549227 0.216518 0.653164
-0.550632 0.183007 0.669352
-0.551073 0.149911 0.683501
-0.55064 0.117307 0.695722
-0.498468 0.406422 0.56025
-0.506757 0.374303 0.587344
-0.513626 0.34086 0.613401
-0.519144 0.306892 0.637271
-0.523339 0.272638 0.659001
-0.526355 0.238363 0.678467
-0.528276 0.204261 0.695713
-0.529207 0.170487 0.710796
-0.529243 0.137121 0.7238249999999999
-0.46411 0.455939 0.547549
-0.473212 0.42691 0.576719
-0.480967 0.396698 0.604797
-0.488096 0.363534 0.632433
-0.493975 0.329496 0.657963
-0.498638 0.295037 0.681133
-0.502129 0.260406 0.701946
-0.50453 0.225824 0.720418
-0.505921 0.191454 0.736624
-0.506399 0.157377 0.750657
-0.437495 0.475608 0.560984
-0.446874 0.446958 0.591572
-0.455141 0.416998 0.620665
-0.462131 0.385367 0.648892
-0.468083 0.351671 0.676146
-0.473001 0.317263 0.700931
-0.476846 0.282483 0.723241
-0.479631 0.247584 0.743124
-0.481404 0.212742 0.760659
-0.482245 0.178023 0.77594
-0.397838 0.522641 0.539355
-0.409774 0.495124 0.572188
-0.419648 0.466709 0.604134
-0.42838 0.436932 0.634506
-0.435624 0.405638 0.6640739999999999
-0.441715 0.372778 0.692283
-0.446811 0.338851 0.71837
-0.450894 0.304267 0.742109
-0.453945 0.269339 0.76346
-0.455959 0.234261 0.782498
-0.456991 0.199036 0.799333
-0.367679 0.541606 0.547806
-0.379349 0.514811 0.582739
-0.38991 0.486431 0.616191
-0.399206 0.456547 0.648257
-0.407289 0.425298 0.678736
-0.414162 0.392833 0.70748
-0.419865 0.359375 0.734267
-0.424438 0.325199 0.758909
-0.427881 0.290583 0.781338
-0.430122 0.255714 0.801678
-0.431058 0.220398 0.820295
-0.336712 0.559704 0.554517
-0.348268 0.533653 0.590967
-0.358997 0.505714 0.626061
-0.368728 0.476112 0.6596069999999999
-0.377399 0.445027 0.6914129999999999
-0.384992 0.412689 0.721267
-0.391483 0.379345 0.749005
-0.396881 0.345272 0.774481
-0.40118 0.310771 0.797612
-0.404281 0.276174 0.818472
-0.40556 0.240237 0.838634
-0.291711 0.600502 0.520984
-0.30515 0.576795 0.559185
-0.316794 0.551451 0.597006
-0.327629 0.524172 0.633446
-0.337593 0.495131 0.66835
-0.346631 0.464495 0.7015089999999999
-0.354707 0.432466 0.732711
-0.361799 0.399287 0.761756
-0.367898 0.365216 0.788484
-0.373035 0.330526 0.812751
-0.377252 0.295498 0.834463
-0.379628 0.259631 0.855025
-0.260549 0.61486 0.522864
-0.273297 0.592393 0.562537
-0.285121 0.567976 0.601057
-0.295993 0.541583 0.638545
-0.306083 0.513329 0.674606
-0.315356 0.48337 0.7090069999999999
-0.323774 0.451888 0.741528
-0.331301 0.419095 0.77196
-0.337924 0.385226 0.800117
-0.343651 0.350512 0.825854
-0.348537 0.315141 0.849066
-0.352679 0.279052 0.869802
-0.228836 0.628344 0.523038
-0.241516 0.606725 0.56373
-0.253301 0.583227 0.603197
-0.264218 0.557829 0.641494
-0.274373 0.530529 0.678505
-0.283796 0.501439 0.713988
-0.292466 0.470709 0.747717
-0.300336 0.438525 0.779475
-0.307376 0.405094 0.809065
-0.313575 0.370625 0.83632
-0.318935 0.335288 0.861142
-0.323452 0.299091 0.883581
-0.209697 0.619771 0.563261
-0.221567 0.597201 0.6034039999999999
-0.232426 0.572847 0.642404
-0.242598 0.546616 0.680173
-0.252107 0.518551 0.716558
-0.260967 0.48875 0.751346
-0.269117 0.457373 0.784318
-0.276515 0.424597 0.815263
-0.283129 0.39061 0.844
-0.288929 0.35558 0.8704
-0.293849 0.31959 0.894468
-0.18992 0.609834 0.601935
-0.200719 0.586585 0.641397
-0.210866 0.561502 0.67974
-0.220403 0.534586 0.716836
-0.229409 0.505868 0.752511
-0.237794 0.475474 0.786553
-0.245507 0.443553 0.81874
-0.252508 0.410262 0.8488749999999999
-0.258735 0.375761 0.876804
-0.264095 0.340171 0.902467
-0.169069 0.598983 0.638682
-0.179242 0.575114 0.677353
-0.188759 0.549452 0.714951
-0.197892 0.521939 0.751325
-0.206477 0.492685 0.78627
-0.214469 0.461802 0.819559
-0.221834 0.429407 0.850982
-0.228484 0.395643 0.880362
-0.2343 0.360639 0.907589
-0.147711 0.587394 0.6731779999999999
-0.157191 0.563074 0.711039
-0.166488 0.536858 0.7479129999999999
-0.175255 0.508871 0.783581
-0.183485 0.479189 0.817808
-0.191197 0.447877 0.850384
-0.198261 0.415054 0.881111
-0.204544 0.380833 0.909845
-0.125597 0.575398 0.705209
-0.135226 0.55053 0.742397
-0.144194 0.523905 0.778609
-0.152621 0.495568 0.813593
-0.160662 0.465501 0.847168
-0.168129 0.433813 0.879114
-0.174879 0.400577 0.909265
-0.104059 0.56286 0.7350409999999999
-0.113362 0.537701 0.771504
-0.121904 0.5108 0.807035
-0.130299 0.482108 0.841434
-0.138129 0.451716 0.874464
-0.14534 0.419667 0.9059079999999999
-0.0820762 0.550128 0.7622909999999999
-0.0913564 0.524803 0.7981469999999999
-0.100151 0.497516 0.833336
-0.108338 0.468564 0.86724
[...]
CELL_DATA 3055
SCALARS gaussian_curvature float 1
LOOKUP_TABLE default
1.237672037813951
1.2718780773453098
1.1773746724953342
1.1580881769479179
1.2800008648944523
1.3923239290247795
1.138980896448276
1.3953735372458196
1.1078244651379574
1.2525735377354366
1.4608762565566273
1.381423230585901
1.136864300998516
1.20780620763841
1.1113834664489057
1.3071121798462288
1.2345829433251645
1.282918134226343
1.1585221268095736
1.318530622658384
1.596036909895096
1.5729523493976485
1.4923174997079878
1.4427438438719826
1.5758521567902446
1.537741997077573
1.669574267911561
1.7358859793538362
1.5809691480224006
1.564448113193074
1.4314059320610006
1.438350334851349
1.5218188601474176
1.5201918219834871
1.6477576713981277
1.5199667231062834
1.4466105050746036
1.4492450830853687
1.691730399467789
1.5837705691428945
-2.296887635671912
-2.03283841603011
14.264534116428038
1.4383829587343178
1.6325884458152147
1.4456343697154197
1.3757906371545148
17.985244424850265
30.369117960895682
1.4127476580882738
1.398187372104272
1.840033467370239
0.7654697245352051
1.4305166122356252
1.5100585940833977
1.3755106221753917
1.524896336584069
1.4156782160174082
1.4051606728511585
1.4134900620151825
1.4866671266413238
1.3792025878202676
1.4086253891328107
1.4898839213395196
1.3699210082433853
1.4313923642720063
1.4128620024089131
1.4130641338917818
1.4327665492748247
1.514881438860078
1.3634000109699302
1.455113335544735
1.4235948207507214
1.3986823321164077
1.425874591047588
1.0434805943162337
1.0544403363486599
1.4468379494270094
1.1277703625251339
1.495126613812546
1.3872028931866012
1.1164349481136315
1.0923399896855228
1.5122145291632036
1.1160302810877527
1.4241457917779514
1.42992430181226
1.4213085903977338
1.4541723554483152
1.3666824641592383
1.4400152095005159
1.4352324116261668
1.458318072076175
1.4621509856163522
1.4143817162255146
1.4161897420409666
1.4322924844828975
1.4256523974699111
1.4425256546834078
1.436861988354349
1.449902332027668
1.3993347278508166
1.406366909182079
1.4287351648701416
1.4293178262178858
1.399262316292322
1.4294792889221084
1.4111987758218196
1.4283754047782873
1.3726387517043783
1.3839207541473106
1.4162051689310609
1.4228377222233544
1.3729801599924751
1.410063708888753
1.3835830984094943
1.4034900183493049
1.3483850331615597
1.3599800844029604
1.402315806736467
1.4073533826349531
1.3503483821177522
1.3905160772176117
1.3611617281454647
1.3814225033055136
1.3283415543004886
1.336981143761315
1.387492715082363
1.39271875406177
1.3318477176163959
1.373634538987582
1.341288000254418
1.3628140464655552
1.311857831611107
1.3191650143229119
1.3735376724949253
1.3783022746776084
1.31617778677801
1.3584946430939442
1.325879847389039
1.346670657493836
1.298339520637431
1.3034598481085502
1.362248513801946
1.3664710506809004
1.305915311627639
1.3458146727334788
1.3157898613114758
1.3348984123125185
1.2894049516612007
1.291531221282022
1.351912229981361
1.35652208544972
1.2998884614809074
1.3363511399301429
1.30789838592024
1.325252513368433
1.2848925134542895
1.2842835533184198
1.3422707586827094
1.346915588312967
1.2938195005192523
1.3263475087748144
1.3037232550221154
1.318897135829485
1.2813309132108315
1.2804138505852014
1.3329535457826505
1.3377781691288353
1.2992277524797018
1.3241551265563063
1.3132398833593308
1.3229933766285658
1.2870802812672049
1.2790871965011976
1.3272505932840184
1.3285986395650329
1.3129734685332024
1.326742204126601
1.319024704142198
1.323039946466362
1.3015208086553336
1.289639752268965
1.3262616378730112
1.325608277102688
1.3142900521636611
1.3192052503660587
1.3123132694401218
1.3132132253183555
1.3120099988520466
1.3052919909527148
1.3177171527074856
1.3210712825541988
1.3108038270153348
1.3006407379661995
1.2994373896638802
1.2883743447365112
1.3057551183957345
1.304984507508907
1.2954702849996305
1.3065546746932135
1.2915483803208248
1.2687945763184854
1.2776361996984578
1.2659454406234874
1.5229532319083736
1.5257935326318288
1.2639836054204765
1.2783929208719336
1.4801238825346898
1.2494031925393607
1.467703046636749
1.2486731157163904
0.8671270583511381
0.896044227102455
1.238123329537909
1.249854606724027
0.9042334080959631
1.2291834449936445
0.8645479195949486
1.4085278874129887
1.2179047380713468
1.226114545792641
1.3835460163255735
0.8037943548795167
1.1916251198597803
1.2053282840248976
8.664305094917982
9.23169822575674
1.1792665892524807
18.374224005695364
-4.284630247796817
-21.415241558307777
10.129291833049901
1.3848824104048993
-15.76851062384482
1.3875576674883712
1.3647759437496103
15.773520422901854
24.97526238606875
1.3707253363151677
1.3454412679654046
-21.347998939201158
1.3852178013335132
1.5417695493705497
1.340742702304066
1.520076174079863
1.3853319498456327
1.3735147419107592
1.5096857795070835
-4.246796141470193
1.3569825740305075
1.463851854597471
1.4773695192175482
1.4049053280087145
1.4005360384883367
1.3844103152740148
1.4437560310569335
1.4678965806758595
1.4943790287492749
1.3848308065485937
1.4608969369903555
1.423812905998508
1.3726610746562522
1.399205029582355
1.0679963296580601
1.0679750275776438
1.4512589614338824
1.1511051255459006
1.3790706846160128
1.1160008797198784
1.4659912636494568
1.3539112851129071
1.1254444849292267
1.0813177884913008
1.3455571690598402
1.096097778632393
1.2486738747253383
1.2622842891940254
1.5124562053934707
1.5607020231652173
1.104647087162683
1.0988895476334946
1.3339791708276714
1.3086106892627805
1.4172557728428106
1.3782768768092326
1.3309428557227423
1.4125365959540397
1.2299567652786427
1.1921796737401777
1.4679294460597068
1.3296224230071036
1.5413705653838294
1.4420424383648043
1.4626740285545603
1.408964040232735
1.2471885117167245
1.217189041534716
1.6206737454530344
1.3881828714792699
1.6521169851303377
1.5189542381755985
1.6654450109933325
1.5808864134189808
1.308532231482984
1.279957887078139
1.7408955530850114
1.4528159747988365
1.815425049665885
1.7714177472515091
1.287830570364128
1.2743181937446035
1.8325716074909377
1.3248522515847225
1.2209346674216863
1.2441731642026834
1.2934982197507314
1.2737775051747011
1.2619449465285693
1.3482121463327639
1.4116954106075663
1.3772236883598556
1.3913818970866103
1.3999860807538231
1.348789936376758
1.4629997840506554
1.4694391649522487
1.4479865125088083
1.5103792528895532
1.474768391719358
1.5130481667680158
1.4726066245966825
1.459956920528911
1.454656678549802
1.554660912535538
1.4421793241486318
1.6013441985634496
1.524473471346738
1.5732608201885838
1.5725881623583662
1.408869647136961
1.4534291227277902
1.7178447769124054
1.3660508879988085
1.7343272553887967
1.4594040936919113
1.6007082939266053
1.502807623230695
1.2817298020785304
1.4068427084147896
0.7262183523878103
1.1736320407080523
0.7189554787267167
1.4412923287438444
0.3914263027530662
1.2823987227682525
1.111716824411479
1.31316779147506
-0.45587652751309254
1.1024646532449833
0.6530019705925227
1.489006301333471
1.993963713223433
2.834003669828498
0.9206624723244188
1.1975749315267068
-0.4560259959847266
0.9676342042700407
1.0301545741750444
1.6178104436888634
4.4860174394846535
8.044885646798429
0.7318965150294002
1.071466431172266
0.11633759691273438
0.9885376545811607
1.5958799592975952
1.8804241474522023
4.81606492473009
10.67192533746178
0.5580404519796791
0.9515755518467415
0.808779236653442
0.8944995673947
2.3922861869822127
2.193462329568863
5.467198157643709
10.954026208105219
0.3014314100598189
0.8568587875158394
1.6795499788050194
0.9745124076970154
1.9157819282196933
1.4095682145250383
5.468265465939362
10.839420595106823
0.03397265448427789
0.6598544190212443
3.6606942103638698
-0.1553790115474783
3.168107840870636
-0.14175166734605707
11.922769684680313
13.96657288967048
-0.07792780452602138
0.5464796683337577
9.273020217205309
-0.7316540098683761
6.066679949006818
-0.6281347698501736
25.294452371471632
27.4516154694534
-0.19448949405633104
0.47286405548744487
12.97196902984669
-0.7954005433626874
6.650969931243641
-0.4215849231087445
32.04147569812696
41.1576187715534
-0.3499083605776928
0.354521928746866
13.578691001429533
-0.7278205787018086
7.128247474854893
-0.10570925092406291
35.92309545999396
48.06488105808833
-0.435805430723161
0.3159224076548976
13.644725823333907
-0.6373135275390629
6.906245889009638
-0.14183673608437747
36.388782955108496
52.21670906519391
-0.5572668893687345
0.2663525352249131
12.320500958134295
-0.7629473368395123
5.65191831817748
-0.383447351702311
33.85192144690792
51.18172350955786
-0.475874604091956
0.2252826348335073
9.321464257263067
-0.6318815850450249
3.754514566820163
-0.1634656056081361
28.251969177593935
46.11384372728199
-0.19368191615125682
0.3418250499390134
8.841329788959168
-0.07820685478114299
5.1458481138527565
0.1442916425407445
21.248322626344574
35.09201232453644
0.22144617394925453
0.5743870920160294
13.617673919141279
0.3507212166105716
8.028159839589433
-0.23723639162926125
19.84405022441882
23.779217256515707
0.6570087524751815
0.7502322071357519
14.400106965533038
0.31257300731522636
4.986987792149456
-0.8351499348496614
20.512784409289512
20.36721358862345
1.0124166884101413
0.7688948253302635
11.69783119007727
0.5419312987610507
4.3112667461538585
-1.0224954181632437
18.207850922685857
17.609684968514514
1.432641816539951
0.7554042640241537
9.081835346771642
0.5808885356165805
2.175286897851237
-0.9918977489867222
16.010985556779733
17.750436688770534
1.667436557426613
0.9547631214256891
3.4740151275115756
0.6527229722845386
0.12421544314447941
0.4701079347554017
6.167448966564663
11.797870946912415
1.6956652015290248
1.1375925020677966
1.3520351751918984
1.9334442409148669
1.5616486718348128
1.7971652459468588
1.0001908889797262
2.465804995985395
1.7151087754831993
1.2947146985682205
1.5650038034120888
1.881429939225482
1.610384136042735
1.691293697744082
1.6785647373571102
1.3233653195676618
1.7779666172512338
1.4753664585409436
1.5866625437777853
1.751040630775201
1.6712286812106227
1.8085112074205938
1.7297381287405253
1.5665278737351582
1.6752811093660802
1.5838259163177955
1.4457093794753413
1.5398833942417283
1.5502089827923382
1.4256584422806848
1.428969047013509
1.464184828722318
1.570017180870112
1.5117963525883236
1.6073031161855074
1.3631039042413293
1.4187515325660836
1.440423859390202
1.3928500207360799
1.5565165434624033
1.451281899481657
1.5194416586107962
1.3232546208196247
1.3411200281908797
1.5648105576202704
1.4860038088634648
1.3712657208387038
1.5024878056431286
1.4212923443730956
1.484354670048381
1.3127505893491815
1.3231713680756794
1.492950888164971
1.5181987552905059
1.360652400497936
1.4778929282564177
1.4029914147811413
1.4571696168643378
1.313735598955955
1.3158604113415924
1.4820775894910008
1.4790024138048063
1.3575491191777778
1.4587744809668453
1.3930474780384605
1.4400946377443313
1.3189471260801877
1.3174726201415703
1.4651019069492173
1.4676817040812928
1.3570467431823499
1.444529949031834
1.3854525454981739
1.4258885916417872
1.324093616021384
1.3214923577799045
1.4534630674050748
1.455355182099944
1.355696515034054
1.430213085184453
1.3784109039126107
1.4124914279193965
1.3272197148065668
1.3240226181097206
1.4396025299882687
1.4442111548188437
1.352093868195999
1.4148868261039942
1.3674084081800082
1.396120842081218
1.3275547096591749
1.3253949451482994
1.4236996865457294
1.4306937331649476
1.3445038807813383
1.39559297986345
1.3557407168295397
1.3781173820104418
1.3251303428018708
1.3234957116637165
1.4038473061978864
1.4131880288573895
1.3361830850431329
1.3757158719882387
1.3431974679690395
1.3603535897332435
1.3203517688144963
1.3205358626214356
1.3815533666693505
1.39220920302599
1.3309017966937962
1.3578683445857938
1.3378243888144803
1.3476348149422739
1.3195376749897556
1.3160020300363626
1.3607364880616184
1.3690592278901796
1.3301129784624957
1.3419760435147787
1.3273606658558588
1.3294133047803482
1.3226158563650376
1.3189631450129817
1.3424430772594476
1.3509699921627676
1.3156339083409891
1.3164235734209462
1.3040628267856431
1.3027998529411107
1.3121818878076454
1.3164115232250568
1.3154895457798679
1.3289463108839383
1.292600019892478
1.285358265481411
1.2776061211067595
1.2716273405402245
1.2916959033479234
1.2997066897077443
1.2839283959791845
1.3004359557978058
1.2679172038909032
1.2532915250065633
1.2524738420137806
1.243826943695976
1.271081201670639
1.2798660023419404
1.249764870368692
1.2666708164001268
1.2453445315671223
1.2279434769173485
1.2322566052859578
1.223502448953989
1.2565293098315289
1.2668226180579232
1.2240351768572162
1.2363919889979722
1.2286108733578038
1.2092821507589857
1.225642369462123
1.2150678031952737
1.2330780884794037
1.2479085986719642
1.204907783797963
1.2152197819328339
11.543007706522628
1.205954321844496
11.71814449386419
1.3916656754529058
21.740388030250752
11.427489908311847
1.1919787104396502
1.1967178248294053
1.3670039427557639
0.7589124367524831
1.1715857131179523
1.1822718344102487
7.6282174166645325
8.220687080644055
1.1559638710941935
16.75197857272698
1.3436832097032412
1.310968016137396
1.3443710884108893
1.3423623153020083
1.2930156826372654
1.3345970951205939
1.3906984758457634
1.3863557856704987
1.409054094122175
1.360586456713824
1.3753740798970482
1.3277257980609414
1.4203608786870452
1.3561268706071552
1.3978456134728674
1.310913296941301
1.4372711579037942
1.4292554264804778
1.2531908599758976
1.2907936875422021
1.38166341728083
1.387211137982888
1.4334299656582297
1.525910002891854
1.460540478744556
1.4936329541533426
1.428643280753685
1.2494094290808406
1.4893072499433975
1.5615182775446645
1.5243419018751387
1.5040728922427813
1.4639771090556217
1.4869768862341797
1.479056959556577
1.484880827674564
1.468439786418803
1.4356694652371673
1.4690088821413243
1.4565075705920463
1.4295078880297658
1.4600798625983258
1.4068782265031539
1.3928203355206803
1.4378951669955304
1.414015674221741
1.4339774151742115
1.4225992339497002
1.413310031159314
1.405491847916071
1.387565875659234
1.4012665332955256
1.4075558011750449
1.3845701071853966
1.4026884040278977
1.391080891262761
1.386286756196392
1.3881232343593428
1.363553947060922
1.3751332752627186
1.3847366409298139
1.3607017937879762
1.3789950143170213
1.3665676799403204
1.371603721329199
1.3682864394486298
1.344930333302326
1.3542932706526358
1.3694684406889959
1.3452491691380566
1.363792545120883
1.3520006079466447
1.3607521825967073
1.3571458366241178
1.3315702569522123
1.3371173072688258
1.3589919160835415
1.3358446326703424
1.35685749253727
1.3455021462983092
1.353101680714226
1.349186051659279
1.3236380863840655
1.3261151494745236
1.359387262340929
1.3403975889294024
1.3625532753287737
1.3549189481562078
1.3539502975263615
1.3455302923533865
1.3279125138990882
1.320810524981718
1.365515521530992
1.35361393914452
1.364701883940727
1.3604346287268212
1.3616713608760804
1.3532721498592946
1.3418266401163264
1.3306465740976998
1.3614503686931607
1.3532129986161496
1.3557119640000967
1.3517418491369915
1.3597502876852485
1.3591576422779033
1.343450063754008
1.338884394836486
1.3436438419707297
1.341828142341135
1.3312205892800137
1.3333750045135244
1.3406675733932878
1.3510356144147424
1.332049995173644
1.332200767107359
1.3135154433161988
1.3219968154457433
1.305310236001917
1.311637192897951
1.3119224823177984
1.3266513597041714
1.3174319464122262
1.3190319883125161
1.2913710611839606
1.3082637028771813
1.2891863107159576
1.299751995513144
1.2874468220657165
1.2997930358852723
1.3082505678281917
1.3070591888154444
1.2750948139975016
1.300191122216181
1.2747628320322715
1.289293455453764
1.2685658016110146
1.2787330592112267
1.3038366846812466
1.3033844229292204
1.257509455320624
1.2913423705087106
1.2583039134036627
1.2776062051702566
1.2492697072840118
1.2599940716091724
1.2974745468470346
1.2990711942571536
1.2390047198064074
1.2788338617625223
1.2418152169008598
1.2623420670903807
1.2290309169799236
1.2400903625405668
1.29161661388467
1.296521133630728
1.2217791981679529
1.2666228955939767
1.223730202707464
1.2480470499439669
1.2098191015725503
1.2198813174789735
1.278994808995706
1.2874967326142575
1.201591447660616
1.2469386582969968
1.212366386375945
1.2333967497758227
1.1917857445806135
1.201964403032059
1.4532964314447856
1.4667767364934847
1.1969465928691028
12.68023019402831
1.3729867656508623
12.835240003410194
1.1781654933206125
1.1837795837474523
12.196507022330065
0.9560313512253666
1.342207588875568
0.7689538607297279
1.1575393732919836
1.1695374505187879
7.739983182454307
8.300446862758166
1.1447493254500019
16.752273141503444
3.9210613263372154
-1.7282984188046064
-10.919866427534478
6.987211109817109
1.3257726402851864
1.0441088518391872
1.032030127449087
23.88278984401901
-7.734770144174758
-26.934873636734636
1.757041933736111
1.8880671580060393
1.1977332000632785
1.0941592966116582
1.2217915704937308
1.1302963914322106
1.1110275382458483
17.852981924223656
1.1343889247255499
1.5035290490139033
1.1423970876862188
1.1165824178352781
1.1460945276862942
1.2117750368968736
1.1332949607047953
1.125983781694877
1.0276069339517928
1.0815505356626167
1.11415475677342
1.2434277866721677
1.1572344817671558
1.220827002455324
1.143432936934739
1.1662705808661897
1.306836431627409
1.1862081979686296
1.179745304836398
1.2603147312252685
1.237383380819264
1.2543602865199666
1.0342972466767777
1.0410646037688545
1.2843336101015004
1.308254526286797
14.904100699219613
-2.9234773099258775
-3.695442828392256
19.173659777310263
1.3247854597941306
1.3567147964485948
1.3354184880779507
19.37873021873777
0.8470189164347153
1.3321907400559367
1.6263897151629
1.3642517766316329
1.3422080049521772
1.3614624182821469
1.3607149549733353
1.3571176389536914
1.5546511001981567
1.3418526464149152
1.3424684098024948
1.363278886619355
1.3668790167130056
1.366667414691749
1.3710150080942112
1.3126880731760093
1.3037374671608597
1.3532815299883816
1.3467621097114493
1.3078253300579075
1.369099697686675
1.3198555573116593
1.3767823315379646
1.4367297084652921
1.4449809796557882
1.3642044998605742
1.3525223235434867
1.3950002976447675
1.3756917499583958
1.4223131547076104
1.3460778327949332
1.3304177642883293
1.3841774023626054
1.3646655857864285
1.3608609695398963
1.3606614138302904
1.3455026536803096
1.3434241445108617
1.404500706273558
1.34673287590788
1.3438020834287618
1.3670452875920138
1.3565943025346703
1.3415040130686458
1.422519011446639
1.3928583473120864
1.4127967839273832
1.1702259419527306
1.1582175354725364
1.3585414843385593
1.3620658130771826
1.273403546981014
1.3948242010143326
1.3165921128566334
1.4180743302746546
1.268151309089579
1.2163280383047361
1.3988120080385853
1.352807063843556
1.8878220223376818
1.8384913545377186
1.906443263743522
1.8803387533671376
2.018431895473952
2.0416580528975308
1.8071855464824025
1.8544110344054698
1.8852603383370665
2.070344899347035
1.8896545763439536
2.0515129799303433
1.6793701044071017
1.7132839442828676
2.0563864791386584
2.0017719137274863
1.6159560656199956
1.7726387692864387
1.686293582035832
1.6811178821158852
1.492557766492804
1.560366043286797
1.8662559322217467
2.1311717226572746
1.5456471181719034
1.6329656691834256
1.606450837295101
1.6989450882265695
1.4213363333373017
1.4385844980740385
1.414635823513018
1.556405199380786
1.4577512474033396
1.601532473191731
1.4941100701227046
1.5453970449796275
1.3852807833252945
1.409669588382454
1.6089153275512396
1.4879980969156703
1.4112099827393685
1.5060206146139055
1.436578953164322
1.4801026101819361
1.3580153904452872
1.368445013750578
1.482269785414741
1.5290290701399716
1.379623170472481
1.455753491655896
1.4005133501245592
1.4331200142903602
1.3439594352418802
1.3477206256396395
1.4469102515497787
1.4475085408766546
1.3649699475490729
1.4234382562454169
1.3833557425910616
1.4092173871216047
1.338929651333093
1.3388093186779784
1.417813449667406
1.4186519676062317
1.3598579730650542
1.4068079492153012
1.3756790070768627
1.3967673386965667
1.3392212168326807
1.3366786901427083
1.4046039230891518
1.4013885544174445
1.3588219597031062
1.3974914561919618
1.372748786646245
1.3903299515153968
1.3420934366372417
1.3383137277786248
1.3965218928476353