# vtk DataFile Version 1.0
Tissue data
ASCII

DATASET POLYDATA
POINTS 1593 float
0.0910193 -0.6985 0.715722
0.0660774 0.606477 0.876771
0.237476 -0.756768 0.45295399999999997
0.219102 -0.752288 0.49594499999999997
0.200596 -0.746076 0.537203
0.180325 -0.738778 0.576233
0.161119 -0.730291 0.612821
0.139048 -0.720998 0.647137
0.116299 -0.710783 0.68128
0.130364 -0.686812 0.72726
0.165134 -0.674046 0.738117
0.199471 -0.660269 0.746593
0.234613 -0.644983 0.753137
0.270443 -0.628164 0.757575
0.306813 -0.609824 0.759716
0.343545 -0.589998 0.759377
0.38043 -0.568744 0.756395
0.417232 -0.546136 0.750642
0.453694 -0.522263 0.742028
0.48954 -0.497237 0.73051
0.524482 -0.471186 0.716095
0.558232 -0.444263 0.698836
0.588637 -0.418269 0.680111
0.616921 -0.392328 0.659534
0.643523 -0.366072 0.6368969999999999
0.668771 -0.339117 0.611843
0.693359 -0.310512 0.583297
0.715498 -0.282145 0.5530889999999999
0.735147 -0.254222 0.521505
0.752239 -0.226871 0.488977
-0.258285 0.748105 0.43821499999999997
-0.235373 0.745251 0.483788
-0.211642 0.740327 0.527724
-0.185617 0.73387 0.569614
-0.160418 0.72568 0.609364
-0.131983 0.716283 0.646563
-0.103196 0.70571 0.682877
-0.0720629 0.693913 0.7173619999999999
-0.04276 0.68018 0.750866
-0.0143268 0.664843 0.783164
0.0127601 0.647867 0.814304
0.0395403 0.628576 0.845361
0.0911263 -0.678105 0.756892
0.0909374 -0.65649 0.796974
0.0907808 -0.633394 0.8364699999999999
0.0906313 -0.607861 0.876778
0.0905085 -0.579726 0.917716
0.0904229 -0.548803 0.959077
0.0903647 -0.51488 1.00061
0.090304 -0.477719 1.04199
0.0901947 -0.437054 1.08281
0.0899731 -0.392598 1.12253
0.0895472 -0.344056 1.16046
0.0887978 -0.291164 1.19569
0.08759 -0.233732 1.22713
0.085962 -0.17582 1.25193
0.0837028 -0.115499 1.27056
0.0807834 -0.0521496 1.28218
0.078469 0.014433 1.2854
0.0795112 0.084319 1.27792
0.0802891 0.15057 1.26175
0.0801498 0.212146 1.23871
0.0793267 0.268732 1.21054
0.0789316 0.32057 1.17824
0.0786773 0.368156 1.1429799999999999
0.0767382 0.412173 1.10619
0.0747109 0.452134 1.06852
0.0727507 0.488367 1.03055
0.0708766 0.521249 0.992673
0.069102 0.551115 0.955194
0.0674732 0.579343 0.916782
0.107135 0.594159 0.886096
0.145268 0.579434 0.894427
0.18161 0.563729 0.900932
0.218767 0.546548 0.904871
0.256601 0.528079 0.906002
0.294948 0.508434 0.904103
0.333624 0.487717 0.899021
0.37241 0.466009 0.890657
0.411049 0.443391 0.8789629999999999
0.449259 0.419949 0.863934
0.486737 0.395787 0.845611
0.523173 0.371023 0.824084
0.558258 0.345794 0.799492
0.589759 0.321737 0.773752
0.618959 0.298016 0.746257
0.646322 0.27428 0.716722
0.672201 0.250172 0.684717
0.697303 0.22484 0.648933
0.719814 0.199944 0.6117009999999999
0.739668 0.175632 0.573361
0.756837 0.15206 0.534211
0.771313 0.1292 0.494704
0.0485501 -0.696159 0.729493
0.00695705 -0.691448 0.742736
-0.0342403 -0.684227 0.755757
-0.076328 -0.673993 0.769107
-0.118885 -0.660455 0.782867
-0.159233 -0.644176 0.796202
-0.197649 -0.626474 0.807352
-0.236721 -0.607003 0.8157949999999999
-0.276244 -0.585901 0.8212929999999999
-0.31596 -0.563279 0.823687
-0.355586 -0.539278 0.822877
-0.394845 -0.51406 0.8187909999999999
-0.433456 -0.487799 0.811408
-0.468937 -0.462276 0.80149
-0.502645 -0.436657 0.789041
-0.535087 -0.410582 0.774003
-0.56669 -0.383664 0.756149
-0.598419 -0.354934 0.734613
-0.628056 -0.326261 0.710736
-0.655456 -0.297841 0.684813
-0.680518 -0.269853 0.657157
-0.703185 -0.242465 0.628091
-0.723444 -0.215814 0.597935
-0.741331 -0.190015 0.566997
-0.756907 -0.16518 0.535519
-0.770208 -0.141317 0.50388
-0.137452 -0.783674 0.438416
-0.111861 -0.778867 0.479143
-0.0794283 -0.773422 0.516097
-0.0488071 -0.76564 0.551538
-0.0185977 -0.756081 0.585509
0.010102 -0.744672 0.618491
0.0374312 -0.73156 0.650484
0.0640263 -0.716371 0.682713
0.296315 0.735187 0.436474
0.278751 0.730628 0.485438
0.25993 0.724047 0.532879
0.240408 0.715596 0.578469
0.220001 0.705627 0.622034
0.199523 0.694288 0.663494
0.178215 0.681966 0.702909
0.157732 0.668708 0.740163
0.135728 0.65482 0.775379
0.113793 0.640603 0.809037
0.0903078 0.624772 0.842373
0.0256972 0.600193 0.891715
-0.0138344 0.59147 0.905717
-0.0529529 0.579977 0.919068
-0.0928728 0.56504 0.932234
-0.132671 0.546239 0.944675
-0.171989 0.525838 0.9546479999999999
-0.211852 0.503499 0.961601
-0.252152 0.479638 0.965125
-0.292654 0.454509 0.964985
-0.333127 0.428359 0.961058
-0.373326 0.401406 0.953293
-0.412985 0.373844 0.941715
-0.45182 0.345858 0.926414
-0.487338 0.319247 0.908786
-0.520909 0.293079 0.888624
-0.553046 0.26696 0.865804
-0.584173 0.240493 0.840019
-0.615223 0.212749 0.8101619999999999
-0.644006 0.185523 0.778164
-0.670393 0.158963 0.744387
-0.694304 0.133195 0.7091959999999999
-0.715704 0.108328 0.672944
-0.7346 0.0844491 0.635964
-0.751031 0.0616302 0.598564
-0.765075 0.0399279 0.561035
-0.776841 0.0193768 0.523637
-0.786451 -3.0708e-05 0.486653
-0.778853 0.0895196 0.499479
-0.778472 0.05437 0.512223
-0.75649 0.224058 0.484971
-0.761227 0.186771 0.504067
-0.764371 0.149569 0.52112
-0.766014 0.112638 0.536148
-0.766196 0.0761395 0.549414
-0.731647 0.289357 0.496147
-0.738924 0.251371 0.518533
-0.744436 0.21311 0.538779
-0.748336 0.17485 0.556806
-0.750685 0.136794 0.572689
-0.751552 0.0990749 0.586548
-0.700586 0.355897 0.501184
-0.710529 0.318073 0.527301
-0.718631 0.279443 0.551182
-0.725012 0.24038 0.572691
-0.72971 0.201166 0.591847
-0.732822 0.162035 0.608708
-0.734424 0.123127 0.623368
-0.663356 0.422018 0.49911
-0.67593 0.385326 0.529096
-0.686668 0.347232 0.556953
-0.695659 0.308155 0.582432
-0.702897 0.268426 0.605418
-0.708447 0.228372 0.625898
-0.712376 0.18825 0.643917
-0.714767 0.14822 0.659563
-0.620799 0.485469 0.48947799999999997
-0.635506 0.451365 0.5228579999999999
-0.648736 0.414795 0.554795
-0.660265 0.376663 0.584565
-0.670061 0.337303 0.611847
-0.67815 0.297084 0.636521
-0.684557 0.256337 0.65854
-0.689335 0.215338 0.677943
-0.692555 0.174267 0.694802
-0.576882 0.54108 0.473644
-0.592106 0.511588 0.509188
-0.605982 0.479913 0.543366
-0.619519 0.443974 0.577649
-0.631592 0.406034 0.609602
-0.64207 0.366636 0.638931
-0.650922 0.326142 0.665513
-0.658143 0.284895 0.689313
-0.663754 0.243178 0.710356
-0.667806 0.201173 0.728703
-0.545954 0.566072 0.489437
-0.561591 0.537081 0.526466
-0.57595 0.505884 0.562276
-0.589072 0.471998 0.597353
-0.601228 0.434799 0.631656
-0.612102 0.395744 0.663193
-0.621532 0.355293 0.691885
-0.629439 0.313818 0.717696
-0.635791 0.27161 0.740661
-0.64061 0.228826 0.760833
-0.496085 0.616371 0.463132
-0.513609 0.590183 0.5029319999999999
-0.529532 0.56185 0.541409
-0.544268 0.531214 0.578735
-0.557528 0.498039 0.615607
-0.569667 0.462126 0.651223
-0.580705 0.423954 0.684568
-0.590485 0.384021 0.715256
-0.598874 0.342747 0.743146
-0.605771 0.300426 0.768259
-0.611155 0.257124 0.790669
-0.460248 0.639883 0.47281999999999996
-0.477632 0.614587 0.514775
-0.494022 0.586668 0.555635
-0.509301 0.556212 0.595149
-0.523371 0.523325 0.63325
-0.53622 0.488101 0.669674
-0.547828 0.450746 0.704045
-0.558136 0.411577 0.736044
-0.567036 0.370946 0.765495
-0.574352 0.329129 0.792482
-0.579902 0.285939 0.817424
-0.423528 0.661739 0.48053999999999997
-0.440488 0.637625 0.524247
-0.456721 0.610649 0.567049
-0.472171 0.580883 0.608558
-0.48672 0.548495 0.6484179999999999
-0.500251 0.513703 0.686349
-0.512668 0.47676 0.722063
-0.52389 0.437979 0.755282
-0.533808 0.397734 0.785809
-0.542196 0.356468 0.813647
-0.548414 0.312744 0.8408289999999999
-0.370158 0.70129 0.440137
-0.386331 0.68187 0.486105
-0.402621 0.659043 0.531192
-0.418491 0.633245 0.575528
-0.43381 0.604516 0.618701
-0.448463 0.573006 0.6603249999999999
-0.462331 0.538921 0.700039
-0.475303 0.502511 0.737522
-0.487285 0.464061 0.772481
-0.498217 0.423888 0.804643
-0.508052 0.382337 0.8337829999999999
-0.515681 0.338907 0.861686
-0.333074 0.718507 0.441525
-0.348713 0.700223 0.488717
-0.364261 0.678813 0.535373
-0.379639 0.654301 0.581093
-0.394655 0.626794 0.625714
-0.409192 0.596413 0.668919
-0.423141 0.563323 0.710356
-0.436387 0.527741 0.749681
-0.448839 0.489912 0.78658
-0.460425 0.45009 0.820781
-0.471127 0.408481 0.852057
-0.480998 0.364995 0.880382
-0.29581 0.734113 0.440799
-0.310964 0.71691 0.489163
-0.325826 0.696812 0.536862
-0.340521 0.673688 0.583794
-0.355073 0.647535 0.6296809999999999
-0.369325 0.618456 0.674281
-0.383172 0.586578 0.71728
-0.396489 0.552082 0.758347
-0.40918 0.515174 0.797158
-0.421168 0.476067 0.833425
-0.432386 0.434932 0.86694
-0.442763 0.391739 0.897684
-0.273186 0.731916 0.487448
-0.287491 0.713049 0.535988
-0.30145 0.691326 0.5838
-0.315402 0.666615 0.630728
-0.329215 0.638966 0.676519
-0.342811 0.608463 0.720895
-0.356039 0.575256 0.763541
-0.368796 0.539515 0.804134
-0.381002 0.501416 0.84238
-0.392564 0.461115 0.8780479999999999
-0.403346 0.418659 0.911064
-0.249396 0.727552 0.532886
-0.262593 0.707214 0.581334
-0.275914 0.683968 0.629036
-0.289163 0.657838 0.6757839999999999
-0.302395 0.628825 0.721326
-0.315397 0.597063 0.765361
-0.328067 0.562689 0.807567
-0.340342 0.525833 0.847647
-0.352105 0.486635 0.885353
-0.363202 0.445173 0.920545
-0.224017 0.721381 0.576548
-0.236809 0.699575 0.624803
-0.249396 0.675012 0.672257
-0.26221 0.647564 0.718738
-0.274878 0.61736 0.763954
-0.287316 0.584509 0.807575
-0.299525 0.549087 0.849311
-0.31136 0.51121 0.888903
-0.322648 0.470964 0.9261699999999999
-0.198235 0.713442 0.618216
-0.210037 0.690479 0.666122
-0.222488 0.664617 0.713321
-0.234769 0.63604 0.759499
-0.246822 0.604836 0.804317
-0.258846 0.570993 0.847509
-0.270627 0.534617 0.888809
-0.281977 0.49578 0.928006
-0.17104 0.704276 0.657527
-0.183407 0.679955 0.70527
-0.19532 0.653026 0.75222
-0.206817 0.623572 0.797967
-0.218567 0.591402 0.84241
-0.230176 0.556656 0.885227
-0.241453 0.519395 0.926179
-0.145079 0.693576 0.6948449999999999
-0.156799 0.66827 0.742393
-0.167404 0.640668 0.788756
-0.178961 0.610238 0.834166
-0.190278 0.577163 0.8783489999999999
-0.201336 0.541584 0.920874
-0.116298 0.682336 0.730039
-0.128451 0.656015 0.77678
-0.1401 0.627373 0.823029
[...]
CELL_DATA 3055
SCALARS gaussian_curvature float 1
LOOKUP_TABLE default
1.0824867823480344
1.1603975333191061
0.9186295918487506
0.9684927860155237
1.013411555748263
1.1892070760889073
1.0031119414546974
1.085476246618302
0.8214703610130205
0.9449868487071262
1.0725455662593268
0.9921825293768295
0.9434421844513445
0.9812241640246699
0.9298163056021151
1.0282157481916905
0.9653072470102032
1.00516204101781
0.8448034134651897
1.016893197773026
1.1037623102526464
1.1426540452977956
1.2042434069392502
1.1152263198190462
1.2040147620548942
1.0401606730179318
1.154674202848979
1.1367294903571379
1.06110769557124
1.249148473071016
1.1084756677004035
1.105408042907045
1.157063761157454
1.0601052565712425
1.2312468747644907
1.0424323031490728
1.1119195634693972
1.03161169522046
1.1871726001607419
1.168401790490916
-1.242382379373524
-1.0106332635168984
6.61930725184826
1.1796596370364074
1.342088082602607
1.178575763415407
1.1092550931249812
9.034507924829061
16.438291048712887
1.1822150362563866
1.1753736928272573
1.607935527333503
0.8742790817655832
1.1681653772657772
1.319042541363864
1.0946261251267306
1.3148239595152433
1.1604422684444982
1.1734080538141074
1.0468632141584366
1.1029232106504496
1.0868901389543026
1.0443560904921254
1.2299697790452555
0.9672378961945657
1.144069192637578
1.144082069988727
1.3275215164279848
1.325810058245675
1.2576213763652688
1.2068173630499417
1.048185993865402
1.2601138634007647
1.0984812486993483
1.1280087050626104
0.8308500762576139
0.874436035338097
0.9649189625463672
0.9128409464764484
1.1574201831209296
1.0815470867740438
1.0978613313241807
1.0691669614561692
1.161315957363284
0.848182217871245
1.0635590342614067
1.0726274330745769
1.055233546855197
1.0399915641061668
1.0048523745391331
1.0806174823041692
1.042641892987222
1.0660577031087817
1.0454760000112144
1.0934329102459905
1.0382109164971323
1.0272351002098672
1.0729039546040702
1.0383844950957977
1.0576225724155326
1.0436848160048275
1.0863281110289351
1.0922972874754682
1.0268246790635314
1.0294852074888585
1.0616532709042574
1.0369432701489176
1.0526630255263623
1.0418907811817277
1.0764157650505224
1.0858092229866625
1.0268851743338787
1.022066904157522
1.057676099592776
1.0376275311738277
1.0526854176305698
1.0434090935562559
1.0722555015356197
1.0820049216154706
1.0278235864503038
1.0220287406431652
1.05934997041828
1.0422821245830884
1.0573485974687753
1.0495570757078974
1.0738416679899498
1.0817565171450831
1.0334151914782077
1.0247382157278515
1.0659985713076627
1.0518080924123834
1.067313953736985
1.0609149966025835
1.0792906747678024
1.0851323985005847
1.0431776226713798
1.032059672862013
1.0775003541782264
1.0651770562555982
1.08088307769438
1.074958736906153
1.08915252863385
1.092258231652748
1.0566709336212905
1.0437784042272722
1.0912608911815247
1.080394382354347
1.0965336020445617
1.0915914340056108
1.101839854328981
1.1031142152974596
1.0723214908215155
1.058379722739014
1.107707143222209
1.0984748947332819
1.1144811891905766
1.1101911087406002
1.1164748753155125
1.1158802972853212
1.09017107289572
1.0752147206352176
1.125929204831822
1.1164156695010579
1.1344013081907152
1.1291778533099275
1.1326213210172122
1.1299410374692704
1.1081403155036864
1.0936119329056668
1.1479742477687964
1.1370147589905055
1.159605006516803
1.1538689726192999
1.1539206719009387
1.1470398485082478
1.1269652035109436
1.1108529438329942
1.175423278548825
1.1612266147160994
1.183691061181058
1.1752304312458355
1.178342749226285
1.1684709013264056
1.1481991459796677
1.1307919484033064
1.1939454744986513
1.1765842930608081
1.1964434056310396
1.1875428541284188
1.2002004502710206
1.1928655076308874
1.1642345518182773
1.1498532212668733
1.2052339834086154
1.1823186362571505
1.2012931960445172
1.1872784003956733
1.2010510595747976
1.198515457569591
1.167658365205445
1.1605328418341825
1.1971672259459634
1.1757907223960984
1.1905435455204727
1.1831818376194516
1.4903187014941024
1.4902617477588387
1.1621283082126546
1.158955715160524
1.4571977345533842
1.1717364926098182
1.4505250951947821
1.1724255611522372
0.9415077236715825
0.9680050101868102
1.1562409534781743
1.154023884304364
0.9580610597510228
1.1590807000167214
0.9176876748665495
1.3968068491747927
1.1518982755267981
1.1497475975306701
1.380858552949212
0.8434233354529015
1.1357352610442617
1.1445011327799195
8.14680052222285
8.675226441885208
1.1267259632103093
16.736303282977943
-3.3204666144701696
8.254136444212795
4.394556400270924
1.1425121201762378
12.675559797384508
1.1344609326277133
1.0929055511530188
8.851783051455355
15.67505927578234
1.1513865850352385
1.1456345015732643
-0.24341849398664905
1.1244889087161476
1.2828522258118076
1.0570004912672262
1.2569191898375807
1.1218841763598655
1.1407306651304319
1.065995320504506
-12.04292964552544
1.045979262342777
1.0369567633714554
1.1577121345259642
0.9487709369842876
1.0886434808526446
1.0970599774208114
1.2588188272812606
1.2619243484400846
1.1690845849399958
1.115102520063316
0.9950053499986068
1.1499644826636035
1.0340811121662297
1.0653728802620654
0.8061593728815163
0.8616898537122933
0.8767301591338197
0.8674897473254092
0.8764915181979251
0.7122919737245178
1.0195629245847269
1.0028346426757477
1.0112220721767282
0.9847536603331228
1.0800415605967504
0.8362509348792305
1.0369350815790974
0.9573440003349847
1.1277094071430263
1.0669921301951082
0.780590863677997
0.8003642273746032
1.0040779730281426
0.9248117143000139
0.9321178125259326
0.9324426350419165
0.9219283254904859
1.0024532805877162
0.9129405778022643
0.8898127926360015
0.9715142752200752
0.9244469190976338
1.0111796188346562
0.9637874401962311
1.042289933031801
0.9207438228000016
0.8960791569195378
0.8922037363660709
1.0731627129736467
0.9468844628152868
1.082922045350872
1.0040359738309375
1.0981745887090453
1.1069671523817806
0.9348186347066483
0.9233538499094968
1.1474045700631683
0.992896703757336
1.1975390515153757
1.158068402538478
0.8584474993968638
0.8575209413618268
1.2193623691211082
0.9984173816622336
0.9407298996421825
0.9679505197595053
0.9806651362339014
0.9511355294224413
0.9620869979412328
0.9895659557333119
0.991669846668183
1.0346349035390339
1.024024177999509
0.9940814408015817
0.982871634608034
1.0031006210771152
1.0553548585403285
1.0052216393059228
1.125321962929637
1.0857994692347561
1.0502066290512333
1.0340021591182085
0.9907579348204989
1.0209912479230172
1.1456668126880802
1.0321487840653298
1.2447228136731712
1.1707272787453018
1.1301657275819263
1.104672648334388
0.9884081038959404
1.0275950845799429
1.2678936554860039
1.0771012306939698
1.403625901727776
1.286829011863611
1.2434004683991726
1.204728541480186
0.9964794179006271
1.0463647857825698
1.43605906640374
1.1450550809444136
1.6155280411011281
1.4413209455059666
1.4026186168026311
1.3456922650398357
1.0179292080936913
1.079081326219546
1.6564219942459386
1.2419347665115115
1.8872311332941887
1.646951001154923
1.6167204900621557
1.5423860873162363
1.0545746525501454
1.126834958693878
1.9515724966788204
1.3710598724384517
2.250075284802756
1.909842792701653
1.901415621405079
1.7973727538366642
1.1065707923683796
1.1951018071234851
2.337426743519586
1.54062842071743
2.709472560282994
2.252906729581941
2.2823925200320105
2.144884186041439
1.1770358954830817
1.2817611873972325
2.8237480042263257
1.7614928018512321
3.266858210876409
2.661168839202369
2.763106701666129
2.5937970342352212
1.2652134449214072
1.3930348474177676
3.4080547631147793
2.0218214401512347
3.9001597066412295
3.1196157553517256
3.3596800826380697
3.1578422278395033
1.3801966137525135
1.5232646558738225
4.068584530001796
2.341594022942508
4.596415091057207
3.6499685352874223
4.079694750256217
3.862895246418942
1.5470999567369659
1.6834968627474622
4.822787063744514
2.7175356320804136
5.402522259243349
4.243717383349032
4.903724508360115
4.688462755927229
1.763880465226571
1.9018193022280376
5.642976562203859
3.077949298412367
6.159069536393969
4.7528471484967945
5.778354851888417
5.618837993543509
1.9117357997040902
2.1238487177869128
6.2118777421446465
3.3248378468958344
6.690609963144466
5.209792455792829
6.387814885636828
6.470384969570708
2.0274531786145276
2.2892489815072103
6.504980548402356
3.4814180008239495
6.700261239938714
5.157516199711945
6.488601309746501
6.850167867980793
1.9162782666260663
2.3472680533136385
6.159733316016288
3.1933836729793383
6.15355290696349
4.72994830415331
6.213388572076742
6.737537257343314
1.7868794551160674
2.1858722476507912
5.535745687312779
2.960146513978987
5.3515128915165775
4.199518320992965
5.511093696941796
6.182556172652962
1.7348425027209544
2.0981400750320063
4.691374724686696
2.6640516264556395
4.474621062400929
3.599292534693483
4.659367349941408
5.2948535264003045
1.6887940870406475
1.998956770319941
3.896831038619963
2.51264264942978
3.595205983909401
3.086346122426664
3.848298047979174
4.394080697014851
1.7656695227481083
1.8770618685968188
3.114769135591364
2.3938935451107652
2.6766661191308003
2.464650390132939
3.1436262722200894
3.5755301298973383
1.7768525749759347
1.722332025610162
2.368108823171693
2.270796642092929
2.056162837614092
2.1708663855331887
2.5528954091658003
2.8903098417536333
1.9007518963214296
1.4775646742266095
2.014475866919742
2.200274678896453
1.804018721454827
1.875113985512441
2.1109467093207446
2.3374202660092016
1.8779459043074356
1.4784928651726719
1.7466685951179544
1.8836284303044921
1.5713648209881868
1.63722939211711
1.821096083157693
1.974917051895568
1.6473688331525498
1.3165256137714811
1.522542572808855
1.64813325967611
1.382025800942857
1.441751916681188
1.5788504062756088
1.702100142494679
1.4763517685344822
1.22918830382354
1.3411891541649077
1.452670393445585
1.2308896251046877
1.2826447486470336
1.390920445809522
1.488064926054225
1.340754730777182
1.1580547628711577
1.1959984156039245
1.2994092573966793
1.2342756286141492
1.3188981297595266
1.2367973162460948
1.1081171448280465
1.2036113787077825
1.0765502217003444
0.9163188822925218
1.0407249263298102
1.0121416941222148
0.9414017198731844
1.039021579378953
1.0312167022236025
1.069286368053214
1.027466558743075
1.0941194567802817
0.9850383160999094
1.0196293777867798
1.005014724213295
0.969686119793238
1.0731412412341874
0.9877147499271837
1.0245169733309263
0.9494398218986867
0.9610418747248306
1.1252663502554159
1.0819729219615914
0.960598812995378
1.0305614212673837
0.9737331336960475
1.0068935185643109
0.9446056843835948
0.9514753234208492
1.0532775317199747
1.0993581928047456
0.9561830867278729
1.0157189272187237
0.971266425900859
0.9976418815234465
0.9478203495778269
0.9493772679342185
1.0385839755545578
1.0524746773527358
0.9651206474033405
1.0123693727412506
0.9815198147935082
1.002393084508831
0.9618897787045771
0.9596728200520497
1.0300671477393317
1.038204704857362
0.9822945558660263
1.0196991833534441
0.9990435578031374
1.0155749155752327
0.9816639184624995
0.9776583086912181
1.0344067169943754
1.034798393147843
1.0046767740871854
1.0334072474293217
1.0214825127183578
1.0336816282883987
1.0063618669239127
1.0000980132363377
1.0438061070436873
1.0406813088305293
1.0299824782088478
1.0506605330300327
1.04607514321899
1.0545540824701338
1.0328090207529717
1.025994148099209
1.0578845529559593
1.0513045078286911
1.0559777398388417
1.0695453921765103
1.0704303155876946
1.0755190286742193
1.0592436215623153
1.0521675674865876
1.0731490525187204
1.0653817627382705
1.081263587271693
1.08773734468191
1.0944430997272208
1.095828144050913
1.0854392219708575
1.0778718320103329
1.0878084844450622
1.0791938287795815
1.1072005642315867
1.1064165988545027
1.120337038978644
1.1181680292778677
1.112034818939674
1.1034529891344724
1.1030818502646946
1.0925645352242572
1.1343798772262572
1.1250902289415632
1.1420628661682402
1.1349422275843224
1.1388822937737637
1.129673710234238
1.117442549233898
1.1071856009803946
1.1515133995537932
1.1356540076664656
1.1521482818199726
1.1434095285165629
1.1568747595670248
1.1519266427289785
1.127127123179435
1.1187676633896266
1.1583574294886327
1.1391705728019297
1.1549918230004323
1.1445437196171393
1.164092566619144
1.1632447789637155
1.1305520037918337
1.1262640750194362
1.1603001361432583
1.136980253829642
1.155651967399571
1.142780188469248
1.1674830555839546
1.1679098795716398
1.1270114073441764
1.1259563041215777
1.1596290081988097
1.1359223611772844
1.1553624653419228
1.1445275972507207
1.1704888868386092
1.1736947654800667
1.1272666876822839
1.1241556684887817
1.158092044658711
1.1394538772007787
1.1584808601354968
1.1506775607687665
1.157701918560853
1.1658322178838643
1.1296226161902363
1.126040662745178
9.944614099663783
1.1453667443706825
10.179157562009227
1.387713506082858
19.043530036208423
10.257006670582278
1.1327709143791105
1.1282504697666522
1.3694672020236616
0.8063318835841868
1.1215010701611177
1.1271515442287423
7.48541257382824
8.039327045539814
1.1122802234332156
15.746171908554095
1.024321097975429
0.9894338399047518
1.0118131459313413
1.023994756276553
0.9935131489002693
0.9911493621977803
1.0299651362454085
1.0009664643604597
1.0174029323814984
0.9955386254198542
1.0233917695621648
1.0049134375492215
1.0037990969633277
1.036543519609939
1.0376578216845758
1.0539657763101486
1.0216671717220542
1.02322380234126
0.9796068787538132
0.9538929248421287
1.061195988248592
1.0783212078091409
1.0800790311925335
1.0808962961275095
1.0476639434088357
1.0419938516035463
0.9550495513586152
0.8737574790034972
1.0414610756811065
1.0673726768546954
1.0442184973187303
1.0693128335573432
1.0701385441664484
1.0952244548381191
1.0686453157473101
0.9588972785695988
1.0427694472528541
1.058397240638683
1.059883938983178
1.0504173961303942
0.995302506540181
1.025429025091399
1.0510146229579744
1.0632028547692494
1.0409148633523702
1.0367913760895398
1.0288418066682885
1.034184862258242
1.044977229034023
1.0164793639521579
1.0451077917367877
1.0513511940969336
1.0239611778487925
1.033228497895167
1.0261796629441076
1.0301039274005288
1.0200084276954056
1.0289514221965548
1.0424152833144746
1.0516880633247978
1.0234504126366275
1.0324449873948214
1.027573344567497
1.0326436548692701
1.0188628473060768
1.01763934746017
1.0429248605256505
1.0497705859506656
1.0287891507154803
1.0390419443119452
1.0369101998661172
1.0420926831608095
1.0224996196813003
1.0166962482027666
1.049402248974003
1.053483832662157
1.0410002200365343
1.052032960869056
1.0534705448847144
1.059320802422544
1.0334992136198413
1.0231196624152445
1.0620121246349516
1.0624321515887627
1.0610890138672424
1.0741706636447295
1.0784879268055008
1.0857193190451582
1.0509736116214339
1.0358541362222131
1.0820927000523026
1.0772220025960126
1.087035565787797
1.10277228934696
1.1038099635213903
1.112315294840896
1.0748257544960882
1.0561627132679834
1.1080822993538608
1.0989513654596317
1.1084815299167556
1.1248050131407648
1.121581379571495
1.1293995314759986
1.0964986080885244
1.07961723040145
1.1298626631640656
1.1226829548710975
1.1198100589137048
1.1387929294007768
1.1278652152044106
1.1390299337869796
1.1075340725727605
1.0973224714023193
1.142821546221201
1.1384857983197236
1.1209290070748863
1.1461083306876358
1.1308414271094311
1.144856032139612
1.1092915592737027
1.1039517810622828
1.1521554243214331
1.1491056442412009
1.1253349850228151
1.1551378930176475
1.1388190105754397
1.1546073135400912
1.1132060427256865
1.1070750370111189
1.1628761934893934
1.1586414262451552
1.132835085028892
1.1659976632727447
1.146374536925304
1.1637488122045052
1.119616300614005
1.1134712838634235
1.1759920380114783
1.172339988750571
1.138226012943639
1.1752008377882406
1.1509826905324816
1.1705832400978822
1.1242646288177167
1.1191943683844945
1.1850976030263172
1.1836399521813155
1.140663933462116
1.1793203813914446
1.153574474605426
1.172630372969354
1.1263455325307596
1.122702905475203
1.192660878199571
1.1938205021440849
1.141854236763523
1.1811857739624747
1.152578450457955
1.1728540892929793
1.1266267805594772
1.1240286174700236
1.185481864625507
1.1902669604405123
1.1392167819419834
1.1690067083814009
1.1510375079033772
1.1605517955077704
1.1255375864670154
1.1236717987789413
1.4156039699866032
1.423747441561214
1.1394660559451772
11.75105672041293
1.3621902813675502
11.964266658230908
1.1248240303078203
1.1227162867910523
11.306868053787232
0.9629603904872746
1.340882762339506
0.7997194894224611
1.1125601595064794
1.1192256528971667
7.657015022271338
8.18975867602427
1.104140540342367
16.028578399143843
5.767770399242093
-1.7454608623443275
-11.808559476265772
8.687906387426622
1.2974817186429755
1.0039155981399137
1.1267221909426886
27.223009293959787
-8.844891051013256
4.4747392306201075
1.5678635612487666
1.4885894055139794
1.0559353462664367
1.0718628089356805
1.0333102750878964
0.9264311449543655
1.0359140372994364
19.518997195706078
0.9652606487402472
1.290501873353046
1.0045526006859586
0.9182897809911494
0.9784467826436622
0.999063093082384
1.0072654433790524
1.01600180881399
0.90134878805122
0.8028879918190027
0.9562540089135527
1.0150902146254919
0.9581888027057921
0.9964086979790094
1.0070183539516075
1.0319239703748109
1.031229544978525
0.9982614304954878
0.9925374449920343
1.0039984869864396
1.0054329791068408
0.9786741258280288
0.806592313888427
0.8230080166402397
0.9997561913313486
1.0083057326769518
8.26834354048599
-2.3577372655452207
-2.8431761530236197
11.756101623180056
1.1323613043608969
1.12781436442333
1.1301548516353823
11.983089604930559
1.0086310922824797
1.1412257455227524
1.5029344209227347
1.1143135743025128
1.1247676539037477
1.1050177465303335
1.113131338919516
1.1043955900500064
1.3448843619213275
1.1318935264683267
1.146145165361817
1.0894316088854366
1.100407829958392
1.0678797432121307
1.0707423718959035
1.0721617156320278
1.0778298690244184
1.0960898206133811
1.1159392021390844
1.001271803046413
1.0541420328435325
0.9838411858912022
1.0338487870045492
1.158927591118259
1.208265638030568
1.064244377205113
1.0765267069124729
1.0859884514291138
1.0213893741730524
1.0831665945273334
0.968559916157925
0.8998291255147128
0.9553376480486472
1.0204952870620763
1.0430570442551534
0.9018260206599986
0.961831735421059
0.8516453187677221
1.026257711898191
1.0854900814881956
1.0806713294411294
0.9932236939607231
0.9990577875866129
1.011219573026867
1.043956401596305
1.0447991583607485
0.9029235937997179
0.8097587761748017
0.833848582743854
0.9663850348579296
0.9800783036994796
0.8789128077253826
0.8579493091300088
0.8612623863925396
0.9821744523581964
1.0151412449600394
0.9795667987433405
0.9930240940643607
0.9604270119956941
1.2319643056794356
1.234984124935936
1.2196319532398716
1.2542783326991818
1.2722890545109031
1.3039156147137132
1.1675593677046465
1.3075280876164057
1.3052074444705686
1.3877605959170847
1.2526654214803745
1.3035920127240805
1.2602159676773343
1.1752249921824443
1.387241521346445
1.3566462950602975
1.1162927617673377
1.1641565924862554
1.068172534919879
1.0651097743950904
1.0644464231828563
1.155827606102659
1.387411401109412
1.526327746776598
1.0723594660095372
1.136137204180457
1.1016706378401886
1.1685111365358969
1.0110690849045314
0.9550358152303917
1.0602925521373674
1.2125199309751578
1.028660704570934
1.1382344802413413
1.035125649548067
1.077858926522766
0.9927494477985095
1.0044689999627583
1.2079344104344631
1.1623664146859292
0.9985602985887936
1.0805764129001196
1.00906171114215
1.0483445484787772
0.9711608888252161
0.971814983012065
1.1165689009163278
1.1835513447320958
0.9839997070095559
1.0527559682704057
0.9985333819474631
1.0280068058716858
0.9661783520539704
0.9638409464229872
1.0846244937487177
1.1162055619732971
0.9869994980538466
1.039690069966873
1.0031354886985782
1.0263526366873816
0.9758777658732798
0.969590294811311
1.0646304597638636
1.0848157211469884
1.0008827872747859
1.0416167603634885
1.0184158114029094
1.0359326365028085
0.9942202858047784
0.9853512550480037
1.0594466255702262
1.0691228916911097
1.0226175200627168
1.0516403384870205
1.040703727844622
1.0522097211690267
1.0196941568226934
1.0088299466928783
1.0646764657070011
1.0667986289295266
1.0515786349029341
1.0678180811972307