# vtk DataFile Version 1.0
Tissue data
ASCII

DATASET POLYDATA
POINTS 1593 float
0.0763324 -0.699341 0.7296509999999999
0.0572589 0.603119 0.882261
0.217766 -0.766319 0.479282
0.19907 -0.760372 0.520051
0.17995 -0.752951 0.559132
0.159967 -0.744407 0.596212
0.140021 -0.734855 0.631199
0.119418 -0.724429 0.664201
0.0983727 -0.712756 0.69682
0.112224 -0.688409 0.740462
0.147397 -0.676259 0.749787
0.182309 -0.662984 0.757146
0.218132 -0.648134 0.762698
0.254695 -0.631701 0.766238
0.291816 -0.613697 0.76758
0.329294 -0.594156 0.766551
0.366904 -0.573131 0.763004
0.404399 -0.550694 0.756828
0.441511 -0.526936 0.747947
0.477961 -0.50197 0.736331
0.51346 -0.475932 0.7219949999999999
0.547728 -0.448978 0.705
0.578593 -0.422922 0.686694
0.607315 -0.396893 0.66669
0.634358 -0.370525 0.644783
0.660077 -0.343431 0.620638
0.685208 -0.314649 0.5932149999999999
0.707947 -0.28606 0.564309
0.728269 -0.257869 0.534112
0.746135 -0.230192 0.503179
-0.236881 0.759389 0.46505399999999997
-0.214011 0.75487 0.508354
-0.190177 0.748514 0.550184
-0.165025 0.740585 0.590222
-0.139587 0.731178 0.628253
-0.113196 0.720456 0.664208
-0.0869873 0.708457 0.698644
-0.061057 0.694964 0.731713
-0.0359039 0.679926 0.763637
-0.0118492 0.663384 0.794389
0.0112354 0.645506 0.823809
0.0341132 0.625608 0.8529599999999999
0.0764219 -0.678194 0.768873
0.0765838 -0.655924 0.806778
0.0768441 -0.632202 0.843993
0.0772146 -0.60602 0.88184
0.0776956 -0.577181 0.920146
0.0782231 -0.545464 0.958699
0.0787114 -0.510648 0.997208
0.0790805 -0.472519 1.03529
0.0792638 -0.430883 1.07246
0.0792092 -0.385553 1.10815
0.0788672 -0.336371 1.14167
0.0781777 -0.283246 1.1722299999999999
0.0770942 -0.2262 1.1989
0.0757157 -0.16938 1.21942
0.0739754 -0.11095 1.23443
0.0719933 -0.0502731 1.24349
0.0705033 0.01305 1.2458
0.070268 0.0797173 1.24015
0.07019 0.143461 1.22722
0.0697121 0.203454 1.20824
0.06894 0.259304 1.18442
0.069706 0.311179 1.15625
0.0708188 0.358723 1.12526
0.0690416 0.403299 1.0926
0.0669811 0.444067 1.05875
0.0649037 0.481221 1.02428
0.0628558 0.515057 0.989611
0.060871 0.545857 0.955072
0.0589821 0.575019 0.919499
0.0927425 0.592038 0.890444
0.128584 0.578358 0.897658
0.165632 0.563292 0.903003
0.203488 0.546763 0.9058889999999999
0.242041 0.528934 0.90611
0.281117 0.509894 0.903473
0.320516 0.489722 0.897848
0.359998 0.468484 0.889153
0.39929 0.446254 0.877346
0.438096 0.423119 0.862426
0.47611 0.399187 0.84443
0.513019 0.374584 0.823444
0.548523 0.349456 0.7996
0.580377 0.325451 0.774741
0.609902 0.301743 0.748271
0.637589 0.277984 0.719912
0.663814 0.253822 0.68925
0.689324 0.228401 0.655041
0.712308 0.203383 0.619509
0.732726 0.178916 0.582964
0.750558 0.155148 0.545668
0.765853 0.131861 0.508231
0.0403312 -0.695819 0.742762
0.00499589 -0.690494 0.755316
-0.030098 -0.68318 0.767601
-0.0661049 -0.673425 0.780053
-0.102812 -0.661031 0.792536
-0.140585 -0.645657 0.804575
-0.179889 -0.628398 0.814487
-0.219912 -0.609409 0.821673
-0.260423 -0.588757 0.826024
-0.30108 -0.566515 0.827463
-0.341585 -0.54282 0.8258949999999999
-0.381655 -0.517833 0.821252
-0.421003 -0.49173 0.813515
-0.457106 -0.466293 0.803453
-0.491357 -0.440708 0.791038
-0.524283 -0.414626 0.776208
-0.55633 -0.387662 0.758737
-0.588486 -0.358845 0.737796
-0.618515 -0.330054 0.714693
-0.646291 -0.301485 0.689711
-0.67173 -0.27332 0.66315
-0.694794 -0.245725 0.635312
-0.715486 -0.218837 0.6065
-0.73386 -0.192772 0.576986
-0.749979 -0.167654 0.546967
-0.763912 -0.143374 0.51698
-0.117156 -0.792135 0.463517
-0.0932242 -0.785846 0.501691
-0.0664925 -0.778537 0.537187
-0.0408211 -0.769368 0.571412
-0.0157416 -0.75864 0.604402
0.00828432 -0.746386 0.636324
0.0312343 -0.732728 0.6671819999999999
0.0538255 -0.717186 0.6981229999999999
0.276421 0.74699 0.463017
0.258966 0.740716 0.5094069999999999
0.24048 0.732618 0.554422
0.221201 0.722856 0.597805
0.201201 0.711665 0.639362
0.18077 0.699226 0.679002
0.15999 0.68574 0.716692
0.139004 0.671384 0.752394
0.118282 0.656289 0.786158
0.097854 0.640504 0.818111
0.077221 0.623308 0.849716
0.0226447 0.595777 0.896366
-0.0113748 0.586618 0.909458
-0.0451505 0.57533 0.921778
-0.0796298 0.561281 0.933797
-0.116388 0.543473 0.945134
-0.156231 0.524066 0.953246
-0.196859 0.50257 0.958796
-0.238021 0.479483 0.961166
-0.279412 0.455058 0.960128
-0.320755 0.429517 0.95557
-0.361768 0.403061 0.947451
-0.402158 0.37588 0.935793
-0.441627 0.348161 0.9206799999999999
-0.477643 0.321717 0.903451
-0.511615 0.295641 0.883879
-0.544076 0.269549 0.861832
-0.575467 0.243051 0.837006
-0.606741 0.215217 0.808341
-0.635706 0.18786 0.7776879999999999
-0.662259 0.161133 0.745394
-0.686345 0.13517 0.711804
-0.707955 0.110081 0.677253
-0.727115 0.085958 0.642058
-0.74388 0.0628651 0.606521
-0.758346 0.0408493 0.5709029999999999
-0.77063 0.0199596 0.535421
-0.780865 0.000194797 0.500398
-0.772734 0.0913256 0.512678
-0.772317 0.0555874 0.524674
-0.749315 0.22847 0.49955099999999997
-0.754159 0.1905 0.517412
-0.757436 0.152584 0.533363
-0.7592 0.114905 0.547407
-0.759446 0.0777207 0.559956
-0.723458 0.294759 0.510618
-0.730934 0.256007 0.531483
-0.736657 0.217027 0.5504749999999999
-0.740762 0.178062 0.567338
-0.7433 0.139315 0.582191
-0.744309 0.100952 0.5952
-0.69131 0.362339 0.516051
-0.701531 0.323654 0.540341
-0.709932 0.284252 0.56269
-0.7166 0.244478 0.582794
-0.721575 0.204576 0.600722
-0.724946 0.164783 0.616494
-0.726768 0.125247 0.630227
-0.652941 0.429543 0.514952
-0.665859 0.391877 0.542804
-0.676965 0.352935 0.568821
-0.686324 0.313098 0.592587
-0.693923 0.272669 0.614067
-0.699827 0.231956 0.633211
-0.704087 0.191199 0.650063
-0.706772 0.150562 0.664708
-0.609212 0.494129 0.506873
-0.624309 0.458932 0.53787
-0.637961 0.421413 0.567658
-0.649921 0.382442 0.595386
-0.660153 0.342336 0.620837
-0.668678 0.301441 0.6438619999999999
-0.67551 0.260061 0.6644289999999999
-0.680691 0.218459 0.68256
-0.684278 0.176807 0.698327
-0.564157 0.550877 0.492962
-0.579775 0.520205 0.526019
-0.594078 0.487508 0.557902
-0.608088 0.450623 0.589825
-0.620653 0.411857 0.619606
-0.631637 0.371731 0.6469429999999999
-0.640993 0.330582 0.6717339999999999
-0.648709 0.288729 0.693942
-0.654791 0.246438 0.713588
-0.659281 0.203882 0.730729
-0.532501 0.575762 0.5084919999999999
-0.548553 0.545656 0.543023
-0.563389 0.513449 0.576377
-0.577019 0.478658 0.609076
-0.589726 0.440645 0.641049
-0.601166 0.400878 0.670446
-0.611165 0.35979 0.697192
-0.619632 0.317733 0.721259
-0.626522 0.274979 0.742679
-0.631847 0.231672 0.761504
-0.481248 0.627397 0.484755
-0.499345 0.599843 0.521805
-0.51577 0.570391 0.55776
-0.531049 0.538746 0.592579
-0.54488 0.504672 0.626965
-0.557618 0.467967 0.660178
-0.569275 0.429102 0.691263
-0.579681 0.388552 0.719866
-0.588689 0.346717 0.74586
-0.596184 0.303873 0.769267
-0.602139 0.260074 0.790162
-0.4446 0.650741 0.494593
-0.462534 0.624162 0.533779
-0.479518 0.595106 0.571898
-0.495407 0.563651 0.608781
-0.510118 0.529884 0.644325
-0.523626 0.493892 0.678287
-0.535904 0.455868 0.710323
-0.546886 0.416105 0.740139
-0.556454 0.374937 0.767573
-0.564418 0.33262 0.7927109999999999
-0.570592 0.288957 0.815952
-0.406992 0.67246 0.502524
-0.424539 0.647088 0.543424
-0.441438 0.618973 0.583427
-0.45758 0.58821 0.6221909999999999
-0.472834 0.554953 0.659396
-0.487086 0.519407 0.694772
-0.500229 0.48181 0.728056
-0.512176 0.442454 0.7589899999999999
-0.522809 0.401694 0.7874
-0.531886 0.359956 0.813294
-0.538786 0.315772 0.83859
-0.351692 0.713461 0.465304
-0.368807 0.692458 0.508307
-0.385802 0.668376 0.550626
-0.402416 0.641439 0.59215
-0.418495 0.611714 0.63253
-0.433916 0.57934 0.671419
-0.448556 0.544507 0.708483
-0.462303 0.50745 0.743424
-0.475059 0.468434 0.7759739999999999
-0.486757 0.42776 0.80588
-0.497335 0.385752 0.832942
-0.505686 0.341887 0.858854
-0.313735 0.730377 0.46721599999999996
-0.330206 0.710645 0.511509
-0.346586 0.687962 0.555237
-0.362774 0.662327 0.598111
-0.378606 0.633833 0.639909
-0.393958 0.602591 0.680328
-0.408717 0.568757 0.719038
-0.422775 0.532529 0.755719
-0.436038 0.494138 0.790082
-0.448429 0.453819 0.821875
-0.459923 0.411764 0.850895
-0.470564 0.367865 0.877124
-0.275493 0.745703 0.467038
-0.291495 0.727107 0.512514
-0.30725 0.705756 0.557312
-0.322861 0.681512 0.60136
-0.338282 0.654378 0.644404
-0.353386 0.624439 0.686187
-0.368066 0.591816 0.726405
-0.382216 0.556671 0.764744
-0.39574 0.519196 0.800904
-0.408558 0.479592 0.834621
-0.420597 0.438013 0.865705
-0.431783 0.394417 0.894149
-0.252762 0.741849 0.511396
-0.268001 0.721766 0.557069
-0.282982 0.698925 0.602031
-0.297861 0.673232 0.646121
-0.312565 0.644716 0.689088
-0.327001 0.61346 0.730652
-0.341065 0.579593 0.770508
-0.354662 0.543273 0.808357
-0.367703 0.504668 0.843926
-0.380101 0.463919 0.877003
-0.391712 0.421059 0.90753
-0.22896 0.736016 0.554634
-0.243336 0.714559 0.600299
-0.257622 0.690335 0.645209
-0.27181 0.663319 0.689159
-0.285866 0.633543 0.731884
-0.299691 0.601101 0.773093
-0.313197 0.566121 0.812485
-0.326293 0.528739 0.849781
-0.338887 0.489077 0.884754
-0.350822 0.447199 0.917284
-0.204027 0.728436 0.596309
-0.217767 0.705673 0.641832
-0.23138 0.680194 0.686551
-0.244963 0.651969 0.730239
-0.258422 0.621058 0.772619
-0.271689 0.587557 0.813389
-0.284683 0.551577 0.8522609999999999
-0.297322 0.51321 0.888999
-0.309446 0.472519 0.923447
-0.178409 0.719264 0.636144
-0.191449 0.695329 0.681429
-0.204535 0.668692 0.725873
-0.217548 0.639378 0.7692289999999999
-0.230451 0.607449 0.811205
-0.243185 0.573005 0.851488
-0.255714 0.536105 0.889834
-0.26789 0.49678 0.926077
-0.152092 0.708748 0.673938
-0.164745 0.683693 0.718966
-0.177299 0.65602 0.763079
-0.189782 0.625717 0.80607
-0.202091 0.592885 0.847612
-0.214337 0.557581 0.887398
-0.226426 0.51978 0.925279
-0.125695 0.696988 0.709686
-0.13778 0.670944 0.75439
-0.149936 0.642334 0.798141
-0.16173 0.611166 0.8407439999999999
-0.173448 0.577494 0.88187
-0.185288 0.541328 0.921214
-0.0992725 0.684084 0.743543
-0.110951 0.657194 0.787764
-0.122345 0.627834 0.830959
-0.133425 0.595811 0.8732219999999999
[...]
CELL_DATA 3055
SCALARS gaussian_curvature float 1
LOOKUP_TABLE default
1.1406500336415233
1.182451420887277
1.1307976346446176
1.1586047334679652
1.1701123354468104
1.100884620212472
1.0778583212395638
1.0749945948848338
1.0101669086661718
1.0566278112554965
1.0953113994802188
1.0609069895201493
1.1033672031438162
1.1033465379141234
1.1222788309790954
1.1380937026250506
1.1153088729589262
1.1385277704613153
1.0643787659719106
1.1369532327978642
1.3411333620224526
1.289575456074206
1.330018221849995
1.2560416317635044
1.4219847547902198
1.2955778944946124
1.3422787657889215
1.3282018559857602
1.2299430787432049
1.445752515532801
1.2931049784425508
1.2915841030672814
1.3702550500710413
1.3602411445639158
1.3651353249463658
1.1876574210372557
1.2315262072405695
1.215338064542106
1.385443553251782
1.369803590216113
-1.5011772498092526
-1.1962950397043748
7.546737483359968
1.183426052845008
1.4611004908672947
1.180447391548284
1.153239619465693
10.228455236220716
18.766577822309678
1.1809140744245787
1.1780285246310664
1.5767292465805425
0.8871718298150338
1.1735527467518034
1.2227210044651904
1.1426506163799748
1.2190266461759531
1.168582666491818
1.1729653328678693
1.1117358871795224
1.1578832578932725
1.1345633227919132
1.1161565538329914
1.1616940510777853
1.0669112523228854
1.1510041049085404
1.1541213182366168
1.1996670914607026
1.1915520665179962
1.1720057031572209
1.113711526385123
1.104983190788652
1.141471812771454
1.1321891198731726
1.1383182499103643
0.9882029220799962
1.0249131856454698
1.068520981817079
1.040181917581219
1.1254283628782626
1.1220739885657876
1.0959370316810606
1.0717183225661688
1.1263287552137644
1.0524424674983601
1.0915213827702253
1.120383513179306
1.1199805506958365
1.0512079115951134
1.0673122450036643
1.1140144693579956
1.1109266383419818
1.111437665746588
1.1087527972140439
1.1166053370799787
1.114161325643091
1.0829017668218337
1.1061083242427456
1.1035041681464197
1.10382937918774
1.1039100916239584
1.1090443311548634
1.116964540380689
1.1003326466975647
1.1088159630662977
1.0986609874952475
1.099219342908055
1.0978767674156966
1.098354410392286
1.102044958777914
1.1101493573825245
1.0983085641372559
1.099827791404304
1.0949383865670224
1.0962903043676882
1.0960211417693366
1.096895416593413
1.099217803827053
1.1055401559583937
1.095346937406378
1.0965002646601767
1.0951265295848849
1.097246599690914
1.0972180234969935
1.0984638187789462
1.0992925636299522
1.1044665930744344
1.0960376794405058
1.0947431293816945
1.0982892298563178
1.1008816051622685
1.1022339236446805
1.103580503668678
1.1027990724447587
1.1058939001305015
1.1002436436317464
1.096616936998016
1.1051806040312044
1.1077973454372738
1.1098910355162341
1.1111611968983057
1.1089259259660627
1.1104890881679794
1.1064002046711685
1.1015454013720507
1.112622571110938
1.1159765252681224
1.1180404209487442
1.1201242137238567
1.115490149925166
1.1165039362653197
1.1148784840885524
1.1086660149526302
1.121776901276398
1.1253106841585874
1.128050826745277
1.1295008168523537
1.1237304877316525
1.1228615862182263
1.1234473698001421
1.1171628581858413
1.1316423712545873
1.1340657318958065
1.1386727957730107
1.139646166307153
1.132587280129237
1.1309493220751805
1.1323632396749714
1.1259350102730732
1.1453263878874034
1.1458130065924141
1.1556413936568877
1.155154641827756
1.1457318257264055
1.1400231424866623
1.1420110229340632
1.134141690427967
1.1639308547462444
1.160320201229325
1.1702601291086019
1.1671362274208141
1.1621345182796672
1.1542504950293124
1.154040494280307
1.1450729512203872
1.1734189272800937
1.1671692442004618
1.174407190069342
1.1712814086774979
1.175706558504923
1.170751423866854
1.1614887966592409
1.1551760729305753
1.178035308958068
1.1654960756855954
1.174191722535706
1.164778270655077
1.1752876224459514
1.1739471347820545
1.1580781389966899
1.1581830244473714
1.17104533343527
1.1548033847661134
1.1646134002410098
1.1577849034524819
1.4352423025638923
1.435641005152212
1.147809691440233
1.1503666406402915
1.4048799151192926
1.1483427587877366
1.3989175425547071
1.1492088830116791
0.8612975860322132
0.8852280402825532
1.1391005290542837
1.1415489803931487
0.8820796311690756
1.1387623863233138
0.8500327839759937
1.35642419867326
1.1330260838380741
1.1342303507929867
1.3427820751948116
0.772067022398382
1.1193685881943343
1.1272744091875428
8.814287841607651
9.378951100857263
1.1133167946475178
18.443640522538594
-4.182112624473795
9.498571390729943
4.85317752638335
1.1587587840600677
14.825305361811106
1.1569603814621958
1.142822944009496
10.18980302916185
17.97131647165599
1.1588660460568878
1.1546201403015237
-0.06892659342287466
1.152084085845345
1.221061434974594
1.1279839987986122
1.2110987853805613
1.1478369130121995
1.1528204706258705
1.1273550194641588
-13.84511542673492
1.1206640857782952
1.127615282314151
1.1505825423126506
1.0744189522665573
1.1302764728226484
1.1333492130098202
1.1921015886719493
1.181878676227924
1.153989607974969
1.1055090259937932
1.0986275963841936
1.1263106044491111
1.1110091726146465
1.1172144939966815
0.9922967135465797
1.025692946177142
1.0577108203181613
1.0423905715879915
1.0748000566173705
1.0317967998222832
1.1029889174084277
1.1009252581141378
1.0897938764400035
1.0605015968539098
1.1241916233492637
1.074494816159312
1.1374716626174486
1.130778112222584
1.0908417805688755
1.086728310927249
1.0383007375043425
1.0430060260193261
1.1845817572560073
1.1049726283414083
1.2126928341547145
1.13977725563498
1.1479000665098802
1.0674401290909334
1.0770952922563142
1.0667066974825206
1.2489932811414366
1.1253658535682403
1.2321309857391982
1.1814191366857367
1.3199450281865313
1.2469628904536825
1.0872081358760377
1.0737422018576832
1.2813786467428419
1.1611037563476476
1.2892016267330852
1.2196385853913525
1.301197378808927
1.3229014648503783
1.1115557113189782
1.0937133739648648
1.3419741112711627
1.1741522926868746
1.3954122069139911
1.362458454441999
1.1420116314195652
1.137949879095374
1.4248047390914493
1.1337507302218528
1.1286787265049387
1.1849216596737193
1.142487471237417
1.1232158710449731
1.1287576453342396
1.1956226766868783
1.0852152799931871
1.2745358823333528
1.206562674075964
1.1786513150926596
1.162487442619535
1.0417339089861548
1.283922102300796
1.1159752891270078
1.3917657810397555
1.291792176123356
1.253987601399623
1.2276300198379608
1.0430366974731982
1.090142711415122
1.4035103942232658
1.1616601654932253
1.5443555339244763
1.4024789101108355
1.3671638312293308
1.325484717144647
1.051727106046654
1.1089205250229748
1.5592241717058053
1.2235340111302413
1.7364349847613458
1.542621447999423
1.5161995310936691
1.4649843303184051
1.0680643088009965
1.1370761483350194
1.7570382895102115
1.305638239729296
1.9759376174990395
1.718351104480047
1.7072061218961299
1.643578176535128
1.094137985685074
1.175651491625956
1.9994336032972773
1.408927317381651
2.2624540011695364
1.9295342282729022
1.9451922197695164
1.8718640663571966
1.1310350580114226
1.2289585910655965
2.29244221738212
1.5307445354429476
2.6109605879108297
2.1821826788682914
2.22854397077955
2.144314371039205
1.172689335534509
1.293586768994235
2.6439706101506806
1.680450451307897
3.007978026808302
2.473235777008056
2.564549371603338
2.4676411027609166
1.2199572738166546
1.3636343014686105
3.0405743344224287
1.8454550146946311
3.448896615832724
2.7885195459051717
2.9674552976575317
2.8554377514960616
1.2792431064887393
1.446530691310922
3.4904882312089693
2.032086730631327
3.9169211804616206
3.1188967498115305
3.42617186665308
3.3114612145119375
1.3525562857337994
1.5427771928017522
3.9519533444576824
2.2406425361968436
4.3693904144396285
3.4561040368288807
3.9317978163383973
3.832449287786446
1.4517797920473594
1.6505035607645182
4.423754228282004
2.4611780057827706
4.863365911648177
3.814076066759693
4.457867874403646
4.383348532441985
1.5844805358222667
1.7905438227188921
4.914516031838091
2.666765556413764
5.309860828685001
4.111400198149159
4.979936026759251
4.962899552690979
1.6647214396706929
1.9353344800561176
5.241544039019683
2.7695419580183938
5.610239230496308
4.33669778003086
5.316043823723293
5.449780608309771
1.6722431058481106
2.0120572292358054
5.410287788011632
2.819830094398241
5.690909135115037
4.3739928919670925
5.403817100334209
5.6782683275224946
1.5996505889789456
2.0192194224412825
5.3133625861427625
2.7493287906741215
5.469834199846791
4.222716647526095
5.278374140189852
5.649450001484704
1.5401262012945707
1.944610797168247
4.9835475711430535
2.658688573908764
5.000711561647424
3.922970116733831
4.926369268813529
5.377667451564358
1.5451623116480588
1.89998779588584
4.485997520488228
2.513354286785788
4.4065490481007386
3.511647259311893
4.4191421113860105
4.876677850215683
1.5676484375484863
1.863738005235824
3.9004632494043596
2.5567094277054303
3.7127379143759995
3.2638858814659164
3.8469991279717872
4.28622951756595
1.7914347985242107
1.8006667808933712
3.2814774188227633
2.4876896691722883
2.8915013382719135
2.5465656215315216
3.256761902177872
3.6345582762985362
1.774203922171068
1.7851255052834765
2.5492365821093794
2.337277055191463
2.2501930570879956
2.383169246910471
2.732646398870186
3.0501956383878284
1.9073914366607716
1.40319425599961
2.209475995651838
2.442721321365707
2.0108808015144746
2.1111499374058678
2.31122106165672
2.535347939853684
2.0543636481553977
1.5649259551694705
1.9680133313398553
2.150986808752266
1.7972841726691522
1.8799885141901695
2.0534962571866893
2.19810879336619
1.8482159281390085
1.4200213835823012
1.7553962611844383
1.9204222456152915
1.6047218343782113
1.687043477288047
1.8274598422242967
1.9548306795558443
1.6880334902498655
1.344828878211486
1.5687190796555053
1.7245280289366514
1.4395325113920983
1.5130198177634084
1.628702252992027
1.7367685887545914
1.5483436984023726
1.2784703913883422
1.4010185586700596
1.55317681204513
1.4543164123971228
1.5528135384556836
1.4358503412330783
1.2195090164170783
1.421580568567907
1.1723113886725545
1.0522622439651983
1.1040993578339864
1.0466705986322324
1.050009569924622
1.0405016669748695
1.1388816836511553
1.138968647994376
1.1352636140878638
1.1927793376328382
1.0875291761843857
1.0504941763266402
1.0482681132186977
1.0782144709331918
1.1703153117355067
1.0915613226803669
1.1261464399377075
1.0510087224533222
1.0567053581412245
1.2166531540766097
1.1484166451982631
1.0604843629628968
1.128280648594094
1.0720387837138206
1.1052499520876773
1.0386584891539488
1.0425297003915492
1.1489946285120032
1.1931982621967199
1.0494994688266919
1.109521167753671
1.0632574815886697
1.090068012141792
1.0351367428470735
1.0358501839252543
1.1323474721797213
1.1487902364316371
1.050084508639643
1.0994896158374963
1.0637355852123993
1.0863301618571297
1.039320677552697
1.0381309245221053
1.1182524593066576
1.1316571600370036
1.0568575940161737
1.098270447084493
1.0709087617271882
1.0897270381507769
1.0494948846297483
1.0456090447390276
1.114340687256599
1.1211632454983969
1.0682756011138834
1.102799398019724
1.0819792915956732
1.097684812077925
1.0626198469486834
1.0578902981755625
1.1162809515284182
1.119278831831577
1.0819530216595978
1.1102568397308863
1.0950796559561589
1.1076779535451955
1.07743448454324
1.0718050003141153
1.1211841328802554
1.1220936587359884
1.09694542333258
1.119035817299479
1.1085295932822585
1.118021689660121
1.0936490828447165
1.0872647783519378
1.1272050271433138
1.1267744565383997
1.110570657683775
1.1274812707499984
1.1210944983321847
1.1285130150205456
1.1084287448728263
1.1030913399834463
1.1337886431487791
1.1324982719027368
1.1266576498097158
1.1370911723028339
1.137900939940393
1.1409159457451499
1.1249737846546817
1.1172687203662015
1.1400150966818139
1.1377443117983064
1.144174935437913
1.146910141718037
1.1495130019466637
1.1492332024220304
1.1428637210258867
1.1349058603733324
1.1465622323019669
1.1434919607080598
1.1520789826765712
1.149368772672631
1.1521194401751365
1.1496890296958293
1.1525674037340623
1.1486902085921287
1.1484911285862536
1.1480076489195832
1.1528581450172923
1.1459669934581778
1.1490480890695403
1.1445873479897328
1.1533203928121418
1.1530701090274773
1.1439171312459266
1.146761523397201
1.1489691956987316
1.1377555031815059
1.1441988108725207
1.1374458594351027
1.151309027858342
1.1518501690240004
1.1346270407007917
1.1394090232967675
1.1445674689077932
1.1314704554290074
1.1403383895946635
1.133994327553296
1.151264402330664
1.153235576455002
1.1282005101883594
1.1310474517137405
1.1411372760383867
1.1290385688518705
1.142796186080794
1.1370415409356454
1.141561949771609
1.1474599967507566
1.1245303297153002
1.1262161431760775
10.872908752297299
1.133885739576896
11.092373915400902
1.3591055478256473
20.638986268508155
10.909298376024875
1.12379413333507
1.122441695557249
1.3433763217569596
0.7424023571581932
1.1129896675270823
1.1186272873539438
8.394315862883463
8.987076019345924
1.1047758593907757
17.89725542422273
1.1648865737288014
1.159030559494755
1.1719405903869275
1.1623300771680238
1.134830804073351
1.1690158742821806
1.1851759689161334
1.1828249846459422
1.1860750483877225
1.1780145316962272
1.1767036167988207
1.1609117417088373
1.1864350795423866
1.2125300669674552
1.2313664704348073
1.2542113941180957
1.203342599639626
1.2087311621572283
1.2003792154919148
1.1654518447948694
1.2739154416892693
1.2087672468355715
1.2177591286540637
1.1297660101170774
1.248540509225229
1.2228990580680068
1.113439706651715
1.1467330024586986
1.1034422644175492
1.0663891920457342
1.0444156617680307
1.095355707933202
1.2479295592421693
1.3368714910146438
1.1038044838372376
1.0718537617247241
1.0786987965568147
1.1185763139017149
1.118923761788801
1.1078612329685298
1.0194397921574172
1.1296439521932535
1.1075470595102124
1.1217417453332028
1.102687689913639
1.088836368436352
1.0901406004601573
1.0873518078031412
1.1170010361311162
1.0739781036068805
1.089964599549616
1.0979602096902914
1.0889788741837327
1.0817480489817477
1.085843909010897
1.081401876465928
1.0937557278007146
1.109230800294616
1.0829138325362184
1.0896458224708758
1.0864677648047067
1.0787521854413273
1.0846408123563267
1.0813672655379165
1.0906392082839957
1.0947922061071678
1.080975513483484
1.084790988062555
1.0878360663184856
1.0820459054099294
1.089390033097977
1.0868734190078313
1.0908517196024745
1.0918279091196048
1.0841753779281875
1.0857200660983313
1.094937770943664
1.0903004418256155
1.100453204595652
1.0983324895677493
1.0963441892492167
1.0938121046875189
1.0923613867661424
1.0910638364666165
1.1086317384126438
1.1062400492965256
1.1185414106863305
1.118270436598115
1.107177102893247
1.1004049873818078
1.1071463922593383
1.1012997774710889
1.1267523288413661
1.1283185789036718
1.1351972696798256
1.1370344938303467
1.122931270466271
1.1132657167918383
1.1273258706791476
1.1181840713364035
1.1388904880950368
1.1426216606699735
1.144612553228827
1.1465065016532427
1.1359632045117576
1.1284489277214516
1.1418930759042683
1.1353132008401172
1.1428125319657632
1.1491075479698747
1.1436849835901757
1.1480860511698712
1.138223685434495
1.1370964231142797
1.1478551372642851
1.1445255061819477
1.1372590986845343
1.1479409251266952
1.1400910490622271
1.1463718079246925
1.1333673733024126
1.1352044116767854
1.148846837091889
1.1477395524294751
1.1353907587147163
1.150704404604363
1.1410257821741676
1.1500586692013492
1.131025496554523
1.131834061519912
1.1534945478813918
1.1500678631669148
1.1361766679388132
1.1550861957271605
1.1423548570760493
1.152231497837215
1.1306878168562726
1.1311716689314337
1.1594859660133046
1.157248582764522
1.1355412760311197
1.1580921703181408
1.1414139214206216
1.1540881749464766
1.12870398019288
1.130028710155269
1.163293779370036
1.1618328771752546
1.1329562439492007
1.158535626611541
1.1395492694767082
1.1524543986131932
1.1254129572494067
1.127033338882588
1.1668582381796253
1.1676123955664566
1.1294626812552204
1.1573818940765865
1.1347050679407484
1.1497191516256295
1.1213087234059034
1.1238520249275972
1.1619969703041657
1.165392086408857
1.1231069633239263
1.148847494352093
1.1322487690163299
1.1429752163596156
1.1151455741998266
1.1185897209673317
1.3730079513330242
1.37849468483414
1.1245204210329216
12.176645073561433
1.3292322751373815
12.370630480322607
1.113537322031498
1.1133042808908065
11.713433839349753
0.9039244391288667
1.3110357126356595
0.7293254052425535
1.1023409276877871
1.1095543911880856
8.483736881739125
9.057586037998503
1.0944797765540588
18.063774638769274
10.319942793943873
-1.635701040231961
-18.976042379335897
13.13296763212722
1.2109446230822178
1.0784746951475819
1.1120955202784133
-8.557585750687375
-16.132098627392455
-3.982152319161859
1.358573093234544
1.3558711818638072
1.1165282556195688
1.1101830892085012
1.1177218283328727
1.077755836790974
1.0791591587927667
-20.649447784493816
1.0685101416736495
1.218051042895888
1.0881212923351569
1.0765286605203035
1.0849749376708802
1.1133482973979256
1.084906684038097
1.0771381232090107
1.0696518357038989
1.0292060644397176
1.0686803840011532
1.1229280117759795
1.0789988593953117
1.1048731274430923
1.0870328745320845
1.1001128199047514
1.1444493721347557
1.1279928329402968
1.0866509024478233
1.1223390402446414
1.1057824430365244
1.1155963127855615
1.0090922177947674
1.019792665273187
1.1401551960732443
1.1442106436304715
8.900018462761043
-3.013003829010824
-3.557574639617458
13.063441805593762
1.146391361384017
1.1529238297848408
1.148895677346962
13.346224881963176
0.9410972260701344
1.1514672887516417
1.4907439640443927
1.1507001545834254
1.1452599827535872
1.1412599604110056
1.1398479410190459
1.1488843616533382
1.4338911132241683
1.1453854086065982
1.1540970305675975
1.1306997592160526
1.1307759013327225
1.1171537807127256
1.1186419422213554
1.1260557879808322
1.1348001962456977
1.1266983445080463
1.1358958100473806
1.095499721228117
1.1071104515301926
1.0853446541229381
1.0954672229163842
1.1433554018696896
1.1603654901190779
1.106436867947947
1.1138908018144336
1.0880760693273854
1.0883868808934838
1.0888671622626616
1.079055405035314
1.041138744959829
1.0862630103969546
1.0865114136390575
1.0929181720797123
1.0588119688945064
1.0728965666226038
1.0278097167833664
1.0517060717388114
1.0844892884876876
1.0676071574882866
1.069353471008146
1.0736368421664295
1.030987197096144
1.0597996892817745
1.0545344568082302
1.059450594038416
1.0450120648507717
1.0675119041311758
1.0732151789426339
1.061578465785213
1.1094050650338438
1.0372602817155097
1.1184288979334105
1.0413679773848907
1.1206651449980949
1.0798194045271092
1.036878577707507
1.0724843796912724
1.4535550037527931
1.4659707962649196
1.4401248551019366
1.487087547812069
1.5516389051201842
1.5861858053181905
1.3784208379686007
1.5411944461736171
1.4813959589499452
1.6902648931768816
1.4502770795024085
1.6245991135313382
1.4034414957028936
1.4119804247397967
1.6507535823646093
1.6007813928674661
1.177432133548347
1.371981068629488
1.1911750148656066
1.2114019159178175
1.056705100263287
1.2515955829702965
1.60906740244256
1.8221741365321382
1.1287290714420872
1.2248755805719551
1.2113662132951173
1.2872858213727743
1.0679412934053052
1.0096602035437647
1.1265597517366783
1.3501724208956127
1.1316388638865489
1.2560217464757835
1.1487148596269043
1.1971781341384822
1.0879343461963409
1.1068739175681275
1.319144810350821
1.2520930564125348
1.104229413156124
1.1952826686068283
1.119205661765444
1.1617956427045704
1.0710302316281033
1.0718111604086757
1.2301025832636543
1.2951211126703457
1.088342876081126
1.1641543430077907
1.103172125654624
1.1363936116421627
1.0640639050678617
1.061727509224159
1.198114119430985
1.2305753337845906
1.0845031127660527
1.1444184382175817
1.0994573156044654
1.1261511550684555
1.066155010120455
1.0605450519957622
1.173139644677851
1.1990745945256265
1.088989473301485
1.1369817614596154
1.1039532186541785
1.1252516673483184
1.075256581667128
1.0673763213245107
1.1593677900553412
1.1772583901244507
1.0989646699240851
1.1364881559269056
1.1145351282666192
1.1307601655752997
1.0886086441395877
1.079864301235324
1.1554454415999933
1.166594981617132
1.1164190655404624