# vtk DataFile Version 1.0
Tissue data
ASCII

DATASET POLYDATA
POINTS 1593 float
0.0671592 -0.584358 0.787493
0.0501512 0.477384 0.880144
0.196874 -0.699837 0.616202
0.178229 -0.684467 0.645459
0.159833 -0.668462 0.673105
0.141251 -0.652266 0.6988719999999999
0.123002 -0.635997 0.722759
0.104664 -0.619676 0.744892
0.0862161 -0.602561 0.766371
0.0984091 -0.574262 0.793076
0.128691 -0.563378 0.797755
0.158651 -0.552018 0.801138
0.189349 -0.539687 0.803374
0.220695 -0.526346 0.80437
0.252591 -0.511979 0.8040309999999999
0.284923 -0.496583 0.802264
0.317566 -0.480173 0.798984
0.35038 -0.462776 0.794118
0.383211 -0.444431 0.787611
0.415895 -0.425193 0.779425
0.448262 -0.405129 0.769546
0.480135 -0.384317 0.757983
0.509507 -0.36412 0.745605
0.537555 -0.343837 0.732111
0.564758 -0.323151 0.717317
0.591528 -0.301707 0.700968
0.618785 -0.278682 0.682285
0.64464 -0.255488 0.662481
0.669092 -0.232289 0.6415299999999999
0.69193 -0.209102 0.619968
-0.213784 0.69817 0.608422
-0.191161 0.683105 0.639773
-0.168379 0.667077 0.669563
-0.145154 0.650404 0.6976
-0.122032 0.633284 0.723715
-0.0986252 0.615785 0.747924
-0.0757135 0.597674 0.770686
-0.053097 0.579291 0.791824
-0.0312912 0.56031 0.811647
-0.0102757 0.540839 0.8301689999999999
0.00989783 0.520964 0.8474
0.0299503 0.499952 0.863982
0.0673692 -0.559444 0.811509
0.0675578 -0.534251 0.834295
0.0677613 -0.508383 0.856193
0.0679646 -0.480831 0.877939
0.0681541 -0.451546 0.899366
0.0683056 -0.420491 0.920291
0.0683884 -0.387645 0.940507
0.0683717 -0.353018 0.959784
0.0682292 -0.316647 0.977878
0.067941 -0.2786 0.994532
0.0674923 -0.238981 1.00948
0.0668726 -0.197929 1.02248
0.066084 -0.155624 1.03327
0.0652398 -0.115038 1.04118
0.0643358 -0.0746642 1.04669
0.063442 -0.0338646 1.04987
0.0626996 0.00797709 1.05064
0.0619583 0.0522629 1.04876
0.0613384 0.0956408 1.0441799999999999
0.0606596 0.137864 1.03712
0.0598894 0.178732 1.02782
0.0594859 0.218254 1.01638
0.0591593 0.256262 1.00311
0.0580106 0.292795 0.988416
0.0567481 0.327496 0.972506
0.0554406 0.360323 0.955638
0.0541083 0.391298 0.938044
0.0527738 0.420467 0.919934
0.0514431 0.448993 0.900734
0.0812984 0.467647 0.8841019999999999
0.111846 0.456785 0.8871519999999999
0.142304 0.445342 0.888998
0.17352 0.433108 0.889445
0.205415 0.420116 0.888385
0.237891 0.406381 0.885715
0.270839 0.391911 0.881354
0.30413 0.376718 0.875237
0.33762 0.360817 0.867316
0.371147 0.344235 0.857563
0.404542 0.32701 0.845966
0.437625 0.309194 0.832538
0.470214 0.29085 0.817311
0.50025 0.273158 0.801408
0.528941 0.255496 0.784407
0.556781 0.23758 0.766074
0.584206 0.21911 0.746086
0.61214 0.199367 0.723558
0.638703 0.179592 0.699869
0.663817 0.159887 0.67516
0.687406 0.140352 0.64955
0.709332 0.120561 0.623645
0.0357601 -0.578204 0.79638
0.00497905 -0.57107 0.804451
-0.0256009 -0.562761 0.811899
-0.0570129 -0.552823 0.819007
-0.0891275 -0.541102 0.825704
-0.121864 -0.52768 0.831704
-0.155145 -0.513201 0.836274
-0.188929 -0.497717 0.839268
-0.223084 -0.481239 0.8406089999999999
-0.257445 -0.46379 0.840237
-0.291846 -0.445425 0.838099
-0.326124 -0.426214 0.834161
-0.36011 -0.406244 0.828405
-0.391662 -0.386827 0.821344
-0.422025 -0.367303 0.812898
-0.451717 -0.347367 0.802985
-0.48121 -0.326689 0.791419
-0.511532 -0.304464 0.777623
-0.540664 -0.282083 0.762416
-0.568497 -0.25966 0.745933
-0.59494 -0.2373 0.728328
-0.619932 -0.215108 0.709751
-0.643426 -0.193175 0.690366
-0.665428 -0.171595 0.670298
-0.685947 -0.150485 0.649622
-0.704854 -0.129596 0.628907
-0.101624 -0.72384 0.6105039999999999
-0.0802897 -0.707632 0.638524
-0.0574068 -0.69193 0.663656
-0.035152 -0.675653 0.687114
-0.0134022 -0.658892 0.709101
0.00749729 -0.641592 0.7298209999999999
0.0275015 -0.623796 0.749364
0.0472647 -0.604854 0.768494
0.251937 0.687662 0.6049519999999999
0.233625 0.670841 0.638178
0.215047 0.653191 0.6698
0.196331 0.634851 0.699767
0.17747 0.616064 0.727937
0.158667 0.596967 0.7542909999999999
0.139952 0.577681 0.778859
0.121584 0.558302 0.801685
0.103486 0.538889 0.8228489999999999
0.0858916 0.519446 0.842496
0.068112 0.499228 0.8614189999999999
0.0197599 0.46876 0.888431
-0.00999612 0.459228 0.895759
-0.0395296 0.448527 0.90227
-0.0698321 0.436126 0.908175
-0.101141 0.421753 0.913252
-0.133511 0.406533 0.916754
-0.166488 0.390289 0.918662
-0.199949 0.373205 0.918797
-0.233743 0.355364 0.91706
-0.267722 0.336838 0.913391
-0.301733 0.3177 0.907755
-0.335612 0.298024 0.900141
-0.369191 0.277885 0.890567
-0.400343 0.258567 0.879811
-0.430297 0.239379 0.867676
-0.459564 0.220002 0.85403
-0.488608 0.200108 0.838632
-0.518438 0.17893 0.820763
-0.547056 0.157799 0.801504
-0.574355 0.136813 0.781015
-0.60025 0.116065 0.759462
-0.624681 0.0956423 0.737015
-0.647605 0.0756242 0.713846
-0.668987 0.0560625 0.690145
-0.68885 0.0370066 0.666045
-0.70723 0.0185422 0.641655
-0.724113 0.000687004 0.617265
-0.713659 0.0835584 0.625955
-0.71089 0.0509177 0.634257
-0.693929 0.209224 0.617216
-0.694965 0.173714 0.629539
-0.694987 0.138619 0.640458
-0.694024 0.10405 0.649991
-0.691876 0.0702529 0.658624
-0.667418 0.268742 0.625397
-0.670499 0.232082 0.6396229999999999
-0.672277 0.195742 0.652604
-0.673017 0.159894 0.663969
-0.672726 0.124645 0.6738959999999999
-0.671359 0.0901021 0.682584
-0.636301 0.329647 0.629818
-0.641527 0.292375 0.646242
-0.645343 0.255131 0.66139
-0.647976 0.218206 0.674835
-0.649445 0.181692 0.686747
-0.649861 0.145739 0.6971269999999999
-0.649233 0.110415 0.7061189999999999
-0.600646 0.390823 0.6299359999999999
-0.608057 0.353557 0.648684
-0.613979 0.315952 0.6662129999999999
-0.618649 0.278355 0.681984
-0.622051 0.240921 0.696143
-0.624304 0.203844 0.708641
-0.625456 0.167244 0.719559
-0.625566 0.131192 0.728981
-0.561081 0.450641 0.625449
-0.570399 0.414524 0.646313
-0.578389 0.377175 0.666337
-0.585083 0.339463 0.684661
-0.590465 0.301586 0.701337
-0.594643 0.263789 0.716259
-0.597649 0.226236 0.729473
-0.599547 0.18907 0.741022
-0.600393 0.152353 0.750991
-0.520939 0.504538 0.61698
-0.530863 0.471459 0.6393759999999999
-0.539551 0.437431 0.6608769999999999
-0.54787 0.400409 0.6819959999999999
-0.555043 0.362693 0.70148
-0.561058 0.324713 0.7191299999999999
-0.565904 0.286674 0.734969
-0.569616 0.248768 0.749009
-0.572221 0.211129 0.761316
-0.573774 0.173818 0.771966
-0.489314 0.524482 0.62867
-0.499643 0.491683 0.652039
-0.508949 0.45789 0.674207
-0.517092 0.4226 0.695685
-0.524386 0.385304 0.716372
-0.530769 0.347472 0.735141
-0.536132 0.309402 0.7519979999999999
-0.540426 0.271308 0.766995
-0.543643 0.233332 0.780201
-0.545816 0.195509 0.7917
-0.44394 0.575966 0.613609
-0.456725 0.544036 0.638668
-0.467616 0.511452 0.66296
-0.477467 0.477841 0.686003
-0.485917 0.44291 0.7083929999999999
-0.49338 0.406583 0.7297
-0.500013 0.369359 0.749342
-0.505732 0.331618 0.767167
-0.510453 0.293637 0.783156
-0.514107 0.255571 0.797382
-0.516699 0.217384 0.8099419999999999
-0.408559 0.595053 0.621626
-0.421172 0.563602 0.648222
-0.432834 0.530959 0.673582
-0.443364 0.497158 0.69781
-0.452816 0.462298 0.720762
-0.461202 0.426478 0.742335
-0.468558 0.389869 0.762375
-0.474889 0.352699 0.780753
-0.48014 0.315203 0.79743
-0.484177 0.277521 0.812514
-0.486837 0.239409 0.826297
-0.372531 0.61299 0.628274
-0.385044 0.582167 0.655999
-0.396885 0.549879 0.682557
-0.407918 0.516304 0.707816
-0.418067 0.48159 0.731662
-0.427307 0.445927 0.753945
-0.435598 0.409518 0.7745609999999999
-0.442916 0.372586 0.793418
-0.449209 0.335379 0.810478
-0.454306 0.29818 0.825811
-0.457534 0.259566 0.84061
-0.32256 0.658361 0.6040409999999999
-0.336136 0.629729 0.63334
-0.348654 0.599552 0.662071
-0.36059 0.567848 0.689613
-0.37188 0.534767 0.715847
-0.38245 0.50046 0.740626
-0.392249 0.465103 0.763815
-0.40124 0.428896 0.785284
-0.409395 0.39205 0.804935
-0.416707 0.35478 0.822687
-0.423174 0.317307 0.838494
-0.427747 0.278986 0.8534309999999999
-0.286611 0.672711 0.606856
-0.299648 0.644934 0.637249
-0.312217 0.615597 0.66657
-0.32417 0.584666 0.6949
-0.335584 0.552276 0.721975
-0.346402 0.518575 0.747633
-0.356568 0.483725 0.7717269999999999
-0.366041 0.447907 0.794123
-0.374792 0.41131 0.814709
-0.382807 0.374111 0.833404
-0.390112 0.336431 0.850161
-0.396774 0.298123 0.865042
-0.250391 0.686053 0.608208
-0.263376 0.65891 0.639455
-0.275833 0.630335 0.669535
-0.287794 0.600256 0.698505
-0.299251 0.568686 0.726298
-0.310201 0.535739 0.752741
-0.320603 0.501558 0.777681
-0.330411 0.466306 0.800978
-0.339592 0.430152 0.822512
-0.348123 0.393257 0.8421919999999999
-0.355986 0.355726 0.8599789999999999
-0.36315 0.317475 0.875942
-0.227247 0.671647 0.640232
-0.239726 0.643834 0.6709229999999999
-0.251617 0.61461 0.700496
-0.263061 0.58393 0.728899
-0.274059 0.551842 0.756027
-0.284596 0.518454 0.781731
-0.294632 0.483909 0.805868
-0.304127 0.448359 0.82831
-0.31305 0.411954 0.848956
-0.321364 0.374802 0.8677509999999999
-0.328984 0.336902 0.884734
-0.20392 0.656088 0.670879
-0.215785 0.627743 0.700932
-0.22717 0.597988 0.729859
-0.238152 0.566828 0.7575729999999999
-0.248746 0.534325 0.783951
-0.258919 0.500597 0.808851
-0.268634 0.46578 0.83214
-0.277856 0.430009 0.853706
-0.286534 0.393395 0.873477
-0.294574 0.355982 0.8914529999999999
-0.180327 0.639666 0.6999299999999999
-0.191693 0.610866 0.729264
-0.202618 0.58068 0.757464
-0.213218 0.549127 0.784421
-0.223455 0.5163 0.810001
-0.233308 0.482315 0.834065
-0.242745 0.447294 0.856491
-0.251712 0.411343 0.877194
-0.260107 0.374524 0.8961439999999999
-0.156658 0.622593 0.727208
-0.167543 0.593416 0.755786
-0.178142 0.562853 0.783228
-0.188398 0.530984 0.8094
-0.198316 0.497906 0.834161
-0.207892 0.463724 0.857381
-0.217073 0.428536 0.878961
-0.225755 0.392407 0.898851
-0.132915 0.605085 0.752607
-0.143602 0.575524 0.780452
-0.153874 0.544648 0.807133
-0.16381 0.51253 0.83251
-0.173454 0.479247 0.856457
-0.182771 0.444902 0.878853
-0.19167 0.409544 0.899636
-0.109607 0.58717 0.776212
-0.119966 0.557319 0.803297
-0.129902 0.526201 0.829194
-0.139589 0.493859 0.853792
-0.148952 0.460389 0.876958
-0.157992 0.425868 0.898581
[...]
CELL_DATA 3055
SCALARS gaussian_curvature float 1
LOOKUP_TABLE default
1.1351387897225695
1.143446903807143
1.123718561031402
1.1224648021028263
1.1493030976130911
1.1450336343442578
1.0518363343073422
1.1327063330816656
1.0312009189601765
1.11594337965099
1.171314443213071
1.1536444172109712
1.0914046011090284
1.1246353923948087
1.101350372781423
1.1223337427763211
1.122453690126957
1.1265445362839848
1.054009590367915
1.118650805030946
1.2875048299571201
1.2782928133359495
1.2937434269457908
1.2594947477288234
1.3222488670182886
1.2393446277100963
1.2813758073560946
1.285511795934003
1.234268599666834
1.3410768744140218
1.2645785304552455
1.286798606686122
1.3290482714279306
1.2800958359215122
1.3467720753125068
1.2572855967474998
1.2243218759250736
1.2303290470753208
1.3150623852675312
1.3170631739738081
-1.6871110188030713
-1.4770178064071378
15.51150910497822
1.1320171750295818
1.3187392323848943
1.1329429441389127
1.1095717890982915
18.328970260114495
33.63501371161182
1.123285961092554
1.1216189223961748
1.3949672630761225
0.6991717144265206
1.131451273207495
1.1576861995611134
1.117247812873798
1.166853894268037
1.1301121379124455
1.1228725949068352
1.1088205103405036
1.13693413056891
1.1229389876075402
1.1174020503747184
1.1626768713998135
1.1075338527727525
1.1431854406600546
1.1361551306312625
1.1359895989761046
1.1365757536488135
1.1794985031091256
1.1207423389223656
1.1529275701149104
1.1493144245552114
1.1437135499892854
1.1471383713324876
0.9965390768250978
1.0019181392768708
1.1484145019459893
1.043295942264801
1.1787191220662858
1.147447237115367
1.048920124863812
1.0307353450569545
1.189291762070776
1.0389983576197603
1.181386037494256
1.1709327944931933
1.1806970959187733
1.1965472423494197
1.1774976348099533
1.1727546888398925
1.1939897469427883
1.1864125185989471
1.197883275276263
1.159841771466556
1.2065679852513207
1.2084365390824692
1.177146149354633
1.204029572707402
1.187100926997566
1.2025135936730194
1.159972614984969
1.1563260668559472
1.2151488981060392
1.2215808389834326
1.1732550411118918
1.2050747553200054
1.1843680923667552
1.2007751398994155
1.1553145762760844
1.1519869277920947
1.2174525784149615
1.2260107421666129
1.1687262766249367
1.2035885160204554
1.1782358188664683
1.1966910107293267
1.1507350611872909
1.148436412093302
1.2160979600142794
1.225662406988196
1.1615578005565852
1.1984821277988684
1.170956501681994
1.1894256370614191
1.1437363058046086
1.1424231086768462
1.2116270963996363
1.2223454233239186
1.1548593388571915
1.1917272860999237
1.1633576606609832
1.1817564725242902
1.1383503875890173
1.1366260556618433
1.2047141053712527
1.215557424933516
1.1483295553330177
1.1836917404526812
1.1561170884868324
1.1730804617431887
1.1323458364468832
1.1308649905066743
1.196599981096255
1.207651532439193
1.1416816504686653
1.1753021552391933
1.1476298440154262
1.164286975529598
1.1265986185032364
1.125050337635269
1.1878988586852341
1.1985854058328034
1.1346016175481135
1.1657917683790868
1.1404716317192247
1.1550046510360263
1.1213151152491019
1.1192603097509857
1.1780337848929197
1.1891256954894716
1.1293874777928272
1.1571084353426189
1.1349285767858575
1.1481165150188477
1.1175082176802964
1.115305869307682
1.1683252110840125
1.1784634432912524
1.1277537238103137
1.1504852226748772
1.1341603286992907
1.143703889330864
1.1166506076434162
1.1119462005064291
1.1597151344464165
1.1685632025317805
1.1297066789404961
1.146299543914858
1.133059113530428
1.1401084178732166
1.1207739301783795
1.1141244637702763
1.1543597434478792
1.1609940006354242
1.1264756303953845
1.139542261120974
1.125811600501402
1.1318289268842032
1.1224239869212602
1.1200747212941868
1.145648390688205
1.1542747469734689
1.1223791347426038
1.1280636864973956
1.1193233797005313
1.1189906050725222
1.119303685391144
1.118684507675818
1.1328649246429205
1.142736294596959
1.115695821664851
1.1127027448548588
1.1116832199329583
1.1090229177509752
1.3397461698692035
1.340298278553424
1.116495758655146
1.1275848570183342
1.321115932712635
1.10381123884482
1.317983553759388
1.1033391620735562
0.7311449910732029
0.7457626264978784
1.10325334433763
1.1122580370440722
0.7600363766399915
1.0974447421894926
0.7438997068150195
1.2959524640503526
1.0950923173270601
1.1004288427039337
1.285359535761358
0.6611271284619953
1.0833744550934141
1.0916149585199761
13.513011713336295
14.133447074624762
1.079577409082518
29.081358699093844
-3.835647406200088
-19.232161416084946
13.156515402190863
1.1197722060036044
-14.285854752488477
1.1188609285036786
1.1097479798964551
18.105630739486806
31.104518224203378
1.115663875772933
1.1093596008651838
-22.76928675170594
1.1217026053783357
1.1742110532686156
1.1105594491172428
1.1721808456147462
1.1257262108785802
1.1187762037732516
1.1506016900433873
-7.397293382546237
1.1219937402351672
1.1446107613883207
1.1671571105281862
1.1281527351838365
1.1396326066604874
1.1322219210428073
1.1500252852873338
1.153986006288531
1.1829953054059237
1.1333365323894786
1.1682084907816686
1.1575540931095731
1.1451389563592556
1.1469396279068385
1.010880896766273
1.011111623459644
1.1662798497698081
1.0606662469714363
1.1497497935962802
1.0547905884700035
1.1855094161635178
1.1495817081287103
1.0565891051502159
1.031021315665147
1.159454426168343
1.0579709585841013
1.1335187409480345
1.1269944784900696
1.2091838044874288
1.2187087383090758
1.0495376947113595
1.0422801827760413
1.1732902568674612
1.1355218594650556
1.199682657211379
1.1684385222669385
1.1733211879804895
1.1832790503801485
1.104668384758271
1.087707739910543
1.2238617405523606
1.1549566823110833
1.237454460703499
1.1997935374066624
1.2467219087146741
1.222573756486721
1.1211673092785803
1.103795674527651
1.26596024332923
1.1835735368892162
1.271247130556277
1.2265213474130996
1.2847335059940554
1.2790878915306383
1.1525715868119721
1.1350022142969154
1.297962826524223
1.2019938471138767
1.3305351636994525
1.3225927303963319
1.158013252694879
1.1515388029168576
1.3517707110206691
1.1752652534628134
1.1476427101169073
1.1803946935803422
1.1869645986600021
1.1624510455366108
1.1472077972190549
1.220337578622689
1.219222742986214
1.2642953816203746
1.2566106409042392
1.2276663227240947
1.2025317731014513
1.2216450758692148
1.2979036427553425
1.2647661650836155
1.3577764537365382
1.3323237167809463
1.2967293222666227
1.2704498052330608
1.2492868633746517
1.2435536720782763
1.385514549608895
1.312222555355746
1.4656673224625247
1.4178280651649673
1.3754827018348383
1.346570285473762
1.2765399190714932
1.2811617787877296
1.4850603970974052
1.365627767207428
1.5856196987665525
1.5140263261741325
1.4645074702378231
1.4350825478288862
1.3039556303435826
1.3204732920168694
1.5946518741740334
1.4223313837420306
1.71858353111844
1.6178564132788573
1.5634202128386263
1.533835110571563
1.3331309130141493
1.3631537185824056
1.7152020759035407
1.4808152912501276
1.8625018833814404
1.7288422165676098
1.6711952475124585
1.6433450413919506
1.3600523586750393
1.4078930099758875
1.844385738402622
1.5418217417865556
2.0164710416350937
1.8475667118328578
1.7855985263105052
1.7597078428982416
1.3863037213825307
1.4525612635884966
1.9796391383979308
1.60465645462269
2.167308931162235
1.9612305771892302
1.9030420901262466
1.8810867812712928
1.410346888949924
1.4977391257560666
2.1116429307724616
1.6517988665289458
2.325189510939854
2.071423800669343
2.0251881601771955
2.004257112295285
1.426306677573212
1.5414288225607304
2.2396233607268314
1.7151804995206894
2.4485859397061036
2.1779087887704724
2.133067056701259
2.1321784363190153
1.449360510550054
1.5801116227429737
2.3409243472401724
1.7735540689833948
2.5674772398831984
2.270784112562052
2.245302600841523
2.2464078892818815
1.4864177453221703
1.6249524761386127
2.4413339884882745
1.8383297668847136
2.6652577637266006
2.3589466694441863
2.3342192440775302
2.3647407490738046
1.5357150619846451
1.681033084000759
2.5171271687609953
1.8756957494846138
2.752166715970829
2.4170463909768625
2.4007196258166816
2.4417354763715426
1.5574228392998637
1.7380590543593675
2.569428495222148
1.8677212148662732
2.8010568960013655
2.434469940639457
2.4413686821135148
2.5076993599178827
1.5210130004856781
1.7520652664115173
2.5737411861547823
1.8390514100279
2.8284966852504265
2.460393864485452
2.4202417666914866
2.519497663429436
1.4772989239412144
1.7260092401721763
2.5833783709805602
1.8581072125727696
2.8190228219736504
2.461854484330834
2.410710564892175
2.5023294596987453
1.461919681113315
1.7024538469393118
2.543101310221447
1.8612922054807246
2.726404710000693
2.401763942902787
2.3727486206499533
2.4760023263137714
1.4875165558859944
1.6918913032766492
2.453752560214787
1.844163222589474
2.5813903530316753
2.2964417825042682
2.320448061097836
2.4227475213122482
1.513329418469322
1.6971544891879047
2.3381967908401897
1.920815704659243
2.3784529901781717
2.2460204745246317
2.2118266851023205
2.321715748176855
1.6205410914617753
1.6653333651866489
2.159211052080396
1.9587546793201684
2.0690248207999087
2.001000963693221
2.1170861768925686
2.2099580092524747
1.6726217687427951
1.659612950749791
1.9288912592941512
1.9510032410402558
1.83704105530699
1.9271768941597824
1.9810189288136855
2.079027615131616
1.7564484819628512
1.5203132940384432
1.8165073019861098
1.9763767008505626
1.7286511010395877
1.7983846610512484
1.8633926298180725
1.936054052658487
1.813409893287556
1.569655327519371
1.7068830247684228
1.8379580363429535
1.6213624758969258
1.682703927459796
1.7501973816020273
1.818850785705155
1.7123584618126064
1.5098182789578949
1.5978785406380909
1.711676487230486
1.515984822142153
1.5684413171716776
1.6375201966687962
1.7043184887612353
1.6200707309434685
1.4654985966424314
1.4908486475892695
1.58500179595393
1.4090485274931819
1.4507451808283176
1.5277788825564294
1.5925567131400178
1.5236436243312386
1.415477389261969
1.3742245062738763
1.4581708243508205
1.4093134737348048
1.4810677299212702
1.429211890758268
1.3604280756130738
1.3743722176656132
1.3057845387338634
1.219939565847982
1.2691068707875215
1.2654653651083958
1.215508898687689
1.2030881407410154
1.2726690071134366
1.3154296372204508
1.2923314192159947
1.3387335550021344
1.2316626229660783
1.2236698194798703
1.286964995700724
1.2556664500563255
1.3371343080584681
1.2791641629355015
1.3142298851515042
1.2214323806859748
1.2170909656982856
1.3727297701348815
1.345864375558821
1.2491942539982945
1.3182785143793236
1.2680459884395894
1.3020645266046158
1.2165241737095376
1.2122600132763937
1.3387770704028978
1.3703239032514918
1.2382091413756524
1.3037376386521438
1.2545692638364847
1.2860792229479494
1.2072355041445473
1.2044022709197275
1.3253600021131513
1.3441854460891975
1.2258460381605096
1.28784526495268
1.2397341298405178
1.2702233975212232
1.1977414303412253
1.1954910187860952
1.3072915806373633
1.3271479020936403
1.2144464354640916
1.2711635750513208
1.2266287428363007
1.2528566147428246
1.1894145206561455
1.186597607213287
1.2900446148707216
1.3085507530253073
1.2032429898907382
1.2534945807972557
1.2123083354802038
1.2363320544801977
1.1799300764579201
1.1782839145955368
1.2711328777905375
1.2893759515555072
1.191234937770806
1.2370970364365967
1.198359241586508
1.220197621252305
1.1705134287985017
1.1682739130750817
1.2536674206092884
1.270540735646171
1.1795744918902593
1.2199955069720854
1.1858719597779752
1.2044545951940042
1.1619303411960864
1.1599935819200309
1.2357694559979286
1.25254195445084
1.168586278180965
1.2045694055786405
1.172962607155205
1.1903630991368515
1.1523743705347946
1.1520159014376319
1.21774529449199
1.233404433133197
1.1604924483713008
1.190018333955792
1.1648607360429777
1.1769861296458224
1.1475698733433293
1.143828124481063
1.2015865564925743
1.2151072105869836
1.1551504319482992
1.1763723976416582
1.1551757999138372
1.1642723720043517
1.1454240269596494
1.1422117560263565
1.1879444006041573
1.200126355145104
1.145472024383042
1.161691080405209
1.1419800687671209
1.1491025526987735
1.1379412916726328
1.1379186622147783
1.1710087575015318
1.1851620520631738
1.1328118668880194
1.1432440088367635
1.128167813102651
1.1314774711197424
1.127014584846646
1.1286520540153382
1.1512524845050716
1.1664287054634044
1.1201443353548215
1.1252399395919968
1.1154207693969718
1.1172067156170555
1.1160776309441218
1.1183038266505774
1.1318780943339692
1.146124101530023
1.1100479577332663
1.1123272470398988
1.106840724171351
1.1073340672579
1.1112974679913505
1.1126035752443562
1.116500902752911
1.1280185260720401
1.1043524314907027
1.1019645867625645
1.107438722867526
1.104557535052839
1.1031649577956533
1.1069027607343858
1.104399142328318
1.1139422785366655
17.356394924497767
1.1039242107930058
17.557017160313663
1.3074276344235907
33.10328010113558
16.8531364258103
1.0975307090930795
1.1005985889186662
1.2933677493310252
0.6375757721760558
1.0856276874646629
1.0932940708573022
13.531413047994667
14.1788658796091
1.0772885419241274
29.621238926491067
1.1442054029174682
1.164878626179779
1.1577853857211646
1.1349155058298273
1.1135717014509687
1.187125263947911
1.169424795298252
1.196076366573188
1.1854691383821434
1.2095351625520274
1.153231302213181
1.1323019955484526
1.2179818013500656
1.1703180458780016
1.2159813897166811
1.1789248624356619
1.242315845921342
1.2428203097485806
1.1268473766025937
1.1258049760216646
1.2385931382946114
1.1908820530608555
1.2369869192117418
1.2263323612590051
1.269514730250068
1.271237026243414
1.171356753987646
1.1159288940870447
1.2441082472313383
1.2229383204821047
1.234693147701258
1.2241777789047612
1.288304504846924
1.3121047687827843
1.1997511336193916
1.1836198753230827
1.2426074175576707
1.2102622803269667
1.245066877521736
1.2232371090875287
1.2399949510610782
1.276276938820251
1.1882891674266336
1.179017479141715
1.2477164862793289
1.206195450057022
1.2370633941123563
1.2173721263242567
1.2692799658647376
1.264017890610552
1.1856847201930958
1.1807532663232694
1.2421304514498912
1.2014021084806856
1.2319897776733673
1.2109527024922613
1.2591165347655604
1.2756129570134342
1.1809744023261803
1.1764336903058252
1.2355695988075548
1.1944828914655687
1.2227135894165577
1.2026639572556777
1.25229411899408
1.2657003811755614
1.1748408671789092
1.1708829720510965
1.225602685205688
1.1862956049521625
1.2129763765999053
1.19371892850726
1.242750836362719
1.256586260760114
1.1676278507048037
1.1643541787216596
1.216049888725227
1.1791113285242933
1.205072411151459
1.1873912990431708
1.2314667707536466
1.2455414097853563
1.1615978613647466
1.1575377071003545
1.2092191867892483
1.1765343594296163
1.2005290084151445
1.1855252931638005
1.2226979907577937
1.2339680971484244
1.1599163143912288
1.1532597868452366
1.2042900959594158
1.1769008582637293
1.1941690817544932
1.1817835593101504
1.2169940398005616
1.226711756224836
1.1618817784640911
1.153888168325775
1.193908834639479
1.1708101664776311
1.1819909076599378
1.1712777619424326
1.2059253343021936
1.2188895252583534
1.158764609142316
1.1547189221751974
1.1785204732169423
1.1594872686289999
1.1649784576419355
1.1566583987714982
1.188496320662894
1.203983254768604
1.1474123434131376
1.1471572793912554
1.1591038929862558
1.1445015457131842
1.148032592475766
1.1417503040731316
1.1690264701433415
1.1848768822449731
1.135896171622702
1.135978099465154
1.144113157335524
1.1352495546575916
1.1363974741136396
1.1338161598383412
1.1517246150256544
1.1655666273229814
1.1286075956453812
1.1265029709704388
1.1320586726735928
1.1287328968368477
1.1258670172307002
1.1251225556692537
1.1379179082749538
1.1498681674051305
1.123638151929471
1.1220794559187537
1.120912199228895
1.1219264078544322
1.1159855165127937
1.1177441866997775
1.1251241020406484
1.1359381556438146
1.1184810205109559
1.1165824234184005
1.1093752609937102
1.1150335255610178
1.1053660681686057
1.1092656625489292
1.1116976809761443
1.122519839306981
1.116171143315044
1.1154364171103275
1.0986952828309642
1.1106481589022335
1.0961028945040936
1.1041561761950396
1.099849181252186
1.1088423865722616
1.113970846539162
1.113725967939884
1.0883153522360232
1.1040274311764668
1.0930024546478418
1.1006612518973398
1.0889405953413789
1.0978820360306711
1.3018637820295467
1.305315214685048
1.089875303062033
17.87431110436988
1.2735601130771597
18.05033711713551
1.0828036495801177
1.0865560442712825
17.381068144448665
0.8052546428292061
1.258346242088653
0.6157198908147632
1.0716327993696166
1.0797750168762081
13.00685163746363
13.643087389962973
1.0652422005950697
28.641421919327968
7.290691097638256
-1.4899721602999372
-12.926277947986142
9.887207740054647
1.106734801679996
1.001890007749708
1.0020803273132515
30.047153992828502
-10.297887163542644
-29.140350281069395
1.2624510148966017
1.294134837360166
1.0610295238275982
1.024351652206147
1.0713160061200904
1.0344478149350955
1.0354903780355058
21.136297114731473
1.0338093978024485
1.1672542861261588
1.0466738882681346
1.0388369682953105
1.0521797862677305
1.0812110574799012
1.0397113810692102
1.0388143531290739
1.0056723174176014
1.0107409096536881
1.0393921437909688
1.0940431028468964
1.0573205873547449
1.0829402751985016
1.0461879372661422
1.0520130725439796
1.1159637378021838
1.0699670415574798
1.0642409002500601
1.0997927172619941
1.0867419121403457
1.096674041308523
0.9983125659226173
0.9981880465024755
1.1140768671230652
1.1191450600148602
17.924706467957364
-3.026020429697243
-3.6237851429717542
22.058110474808597
1.1020540260031488
1.108616430534768
1.1032868793839294
22.261280439859817
0.7452952594900767
1.1060520877907405
1.3470580345521797
1.109796065834813
1.1084868655452897
1.112024564070037
1.1160449149313527
1.1056353111140451
1.307625640865222
1.1125982302796682
1.1113963059058996
1.1140911572980032
1.126043214732691
1.1220856773416057
1.1300173839149779
1.0934302321440943
1.0872028841953605
1.1245119656576006
1.118625030590641
1.1048614502880936
1.1364923457317588
1.1191129304800926
1.1428121193503857
1.146711629258082
1.143274931157685
1.138720912876996
1.130714701985125
1.145756596363419
1.152694133823583
1.166746830136981
1.1499851787268518
1.1132825646860296
1.1284890777726915
1.1528914521108873
1.1452380047829271
1.1472481801354482
1.1580038910488935
1.1486320526573577
1.1761494149809322
1.1441293499822982
1.1311539683064415
1.1682422235703793
1.1604208295356417
1.1529619973311647
1.1941761247878178
1.1820050042979002
1.1957017694309786
1.0963742547260802
1.0889254798991232
1.1854837968200849
1.177695419534685
1.1571796150431566
1.1926920963041898
1.1774338310223276
1.1992495471502822
1.1485365877056213
1.1167742343552804
1.2046916106871042
1.1990089558461603
1.3835224704886524
1.4041231884273195
1.3875553394526354
1.437536631095191
1.45610217253925
1.4854827462431381
1.3478611466815313
1.4795399165199499
1.4307813750204985
1.5622775230514334
1.4354847754400901
1.5376003497671364
1.3640573587741927
1.3496839635218403
1.5559618681118117
1.5211703767282758
1.3248994610856195
1.443482678427661
1.356857548920921
1.373325191935916
1.2694688296861243
1.313330127794289
1.5766080824919309
1.6644100988917847
1.3293833103830113
1.4001437372152443
1.3766587988662593
1.4309515826834975
1.2773549773610826
1.249398584499497
1.3542946508547535
1.460601509639695
1.325776855001453
1.4202862681748951
1.346613120858644
1.3868297502148481
1.2846784959278845
1.2835321067707623
1.4646522707849914
1.4294684989331028
1.3110724854945894
1.3892196530541698
1.3281490986241566
1.366079636827533
1.2724856286431665
1.2669279049336526
1.4138955135218434
1.4558716132926182
1.2946338498923091
1.3657668678506818
1.3070138114524914
1.3402162912074878
1.2605564446354374
1.2554848365158617
1.3925882594520866
1.4175768888966114
1.2768201152804928
1.3404828302244718
1.286610362116725
1.3170705973057077
1.2465814336403722
1.242697724555499
1.3640522209526678
1.3906070735370886
1.26096432862631
1.317737595589644
1.2686222094782025
1.2949352412525539
1.234730142768064
1.2301374946183585
1.3399099470848257
1.3628123395290854
1.245224750279371
1.2941647127517868
1.2519658097176236
1.274592740415688
1.2228262599704065
1.219989533310992
1.3143349682824095
1.3372778482783583