# vtk DataFile Version 1.0
Tissue data
ASCII

DATASET POLYDATA
POINTS 1593 float
0.072387 -0.57806 0.795631
0.0536044 0.469066 0.8806039999999999
0.202589 -0.703819 0.6326039999999999
0.184435 -0.686639 0.660826
0.166467 -0.668866 0.687443
0.147951 -0.651069 0.71212
0.129883 -0.633417 0.734799
0.111015 -0.615829 0.755649
0.0921587 -0.597458 0.775901
0.104919 -0.568895 0.799779
0.135532 -0.558366 0.803689
0.165748 -0.54762 0.806244
0.196671 -0.535973 0.807728
0.228245 -0.523337 0.808089
0.260386 -0.509661 0.80724
0.292989 -0.494925 0.805088
0.325932 -0.479129 0.801544
0.359077 -0.462293 0.796527
0.39227 -0.444452 0.789972
0.425347 -0.425657 0.781834
0.458135 -0.405976 0.7720899999999999
0.490456 -0.385488 0.760743
0.520268 -0.365545 0.748636
0.548766 -0.345464 0.735468
0.576438 -0.324935 0.721056
0.603704 -0.30361 0.705147
0.6315 -0.280661 0.68699
0.657913 -0.257512 0.667742
0.682914 -0.234319 0.647428
0.706326 -0.211133 0.626455
-0.219925 0.702519 0.625385
-0.197591 0.685557 0.655679
-0.17505 0.667615 0.68445
-0.15167 0.649134 0.71143
-0.128473 0.630396 0.73636
-0.104176 0.611448 0.7592
-0.0804632 0.591632 0.780898
-0.0562283 0.572249 0.800607
-0.0331437 0.552489 0.818844
-0.0107347 0.532571 0.835689
0.0107612 0.512457 0.85127
0.03214 0.491411 0.866176
0.0727329 -0.552791 0.817176
0.0727717 -0.527191 0.837758
0.0727713 -0.500959 0.857578
0.0727357 -0.473136 0.8772679999999999
0.0726456 -0.443704 0.896679
0.0724989 -0.412654 0.915651
0.0722982 -0.379984 0.934008
0.0720385 -0.345703 0.951564
0.0717008 -0.30984 0.968113
0.0712536 -0.272451 0.983433
0.0706585 -0.233628 0.997288
0.0698759 -0.193492 1.00944
0.0688656 -0.152201 1.0196399999999999
0.0676973 -0.112511 1.02724
0.0662987 -0.0729884 1.03264
0.0646695 -0.0330044 1.03583
0.0633161 0.00807997 1.03669
0.0635121 0.0514219 1.0346899999999999
0.0636277 0.0939238 1.03019
0.063439 0.135328 1.02338
0.0629736 0.175453 1.01453
0.062273 0.214156 1.00389
0.061397 0.251353 0.9917199999999999
0.0603749 0.286941 0.978276
0.0592871 0.320856 0.963797
0.058168 0.353084 0.948506
0.0570425 0.383635 0.932603
0.0559236 0.412531 0.916274
0.0547735 0.440861 0.899025
0.0866444 0.45948 0.883978
0.118224 0.449307 0.8865689999999999
0.148836 0.43872 0.887908
0.180273 0.427369 0.888033
0.212422 0.415232 0.88679
0.245176 0.402306 0.884068
0.278421 0.388591 0.8797659999999999
0.312027 0.374095 0.8738009999999999
0.345853 0.358837 0.866108
0.379744 0.342841 0.856646
0.413532 0.326147 0.845397
0.447039 0.308803 0.832368
0.480083 0.290869 0.817594
0.510571 0.273508 0.802165
0.539728 0.256114 0.785673
0.568054 0.238414 0.767896
0.595994 0.220113 0.74852
0.624494 0.200494 0.726687
0.651633 0.180791 0.703738
0.677324 0.16111 0.679819
0.70149 0.141556 0.655056
0.724008 0.121872 0.629908
0.0388823 -0.571279 0.80413
0.00608365 -0.563726 0.811585
-0.0264775 -0.555265 0.818226
-0.0598907 -0.54542 0.824377
-0.0940279 -0.53389 0.830069
-0.128092 -0.521193 0.835123
-0.161739 -0.507574 0.8387209999999999
-0.19585 -0.492911 0.841024
-0.230286 -0.477221 0.841865
-0.26494 -0.460545 0.841142
-0.29967 -0.44292 0.83878
-0.33431 -0.4244 0.834728
-0.36869 -0.405057 0.828961
-0.400635 -0.386174 0.821968
-0.431403 -0.367104 0.813662
-0.461515 -0.347555 0.803954
-0.49145 -0.327206 0.792659
-0.522255 -0.305262 0.77921
-0.55188 -0.283099 0.7644029999999999
-0.580211 -0.260834 0.748371
-0.607156 -0.238578 0.73126
-0.632649 -0.216442 0.713218
-0.656641 -0.194522 0.6944
-0.679131 -0.172918 0.674937
-0.700123 -0.151742 0.65492
-0.71952 -0.130845 0.63478
-0.105483 -0.724307 0.633084
-0.0848635 -0.705484 0.660691
-0.0608497 -0.688219 0.684625
-0.0373401 -0.67083 0.7063429999999999
-0.0141036 -0.653353 0.726285
0.00824406 -0.635582 0.744839
0.0296613 -0.617509 0.762187
0.0508124 -0.598481 0.77905
0.258523 0.692789 0.620796
0.240452 0.674244 0.652716
0.222018 0.65489 0.68307
0.203346 0.634917 0.711746
0.184366 0.614623 0.73857
0.16543 0.594148 0.763509
0.146378 0.573631 0.786625
0.127993 0.553155 0.807981
0.10924 0.532688 0.827687
0.0912436 0.512186 0.8460529999999999
0.0728667 0.490977 0.863608
0.0212324 0.460425 0.887979
-0.0103686 0.45095 0.894455
-0.0417065 0.440423 0.900172
-0.0739696 0.428405 0.905245
-0.106498 0.414992 0.909589
-0.139174 0.399933 0.913091
-0.172448 0.384338 0.914879
-0.20618 0.368 0.914994
-0.240256 0.350922 0.913354
-0.274544 0.333141 0.90988
-0.308898 0.314711 0.904517
-0.343158 0.295692 0.897236
-0.377156 0.276153 0.8880399999999999
-0.408735 0.257341 0.877676
-0.439134 0.23858 0.865956
-0.468865 0.219567 0.852756
-0.498398 0.199981 0.837848
-0.528761 0.179065 0.820535
-0.557919 0.158131 0.801873
-0.585761 0.137279 0.782018
-0.612198 0.116607 0.761136
-0.637168 0.0962099 0.739394
-0.660625 0.0761722 0.716957
-0.682538 0.0565571 0.694004
-0.702922 0.0374232 0.67067
-0.721808 0.0188488 0.647073
-0.739193 0.000856662 0.623449
-0.728452 0.0845598 0.631886
-0.72559 0.0515335 0.639906
-0.708536 0.211313 0.62369
-0.709488 0.175337 0.635524
-0.709392 0.139871 0.646027
-0.708293 0.105014 0.65523
-0.706059 0.0709355 0.663502
-0.681575 0.271311 0.631866
-0.684565 0.234187 0.64551
-0.686265 0.19744 0.657913
-0.686895 0.161237 0.6688189999999999
-0.686481 0.12568 0.678369
-0.685009 0.0908471 0.686726
-0.650002 0.332691 0.636521
-0.65514 0.294922 0.652227
-0.658879 0.257242 0.666669
-0.661419 0.219919 0.679526
-0.66279 0.183061 0.690926
-0.663094 0.146804 0.700884
-0.662358 0.111206 0.709523
-0.613859 0.394386 0.6371519999999999
-0.621203 0.356562 0.655018
-0.627059 0.318468 0.671692
-0.631643 0.280429 0.686735
-0.634957 0.242607 0.700246
-0.63711 0.205191 0.712193
-0.638156 0.168297 0.722644
-0.638159 0.131986 0.731677
-0.57374 0.454791 0.633485
-0.583039 0.418042 0.653297
-0.590995 0.380126 0.672298
-0.597622 0.341907 0.689728
-0.602927 0.303587 0.705602
-0.607013 0.2654 0.719828
-0.609919 0.227514 0.732439
-0.611712 0.190063 0.743475
-0.612449 0.153103 0.753016
-0.532997 0.509304 0.626091
-0.542954 0.475528 0.647296
-0.551645 0.440879 0.667657
-0.559934 0.403262 0.687693
-0.567054 0.365024 0.706195
-0.572993 0.32659 0.722979
-0.577749 0.288161 0.7380559999999999
-0.581357 0.249924 0.7514379999999999
-0.583853 0.21201 0.763183
-0.585293 0.17447 0.773359
-0.500761 0.529168 0.637795
-0.511181 0.495636 0.659872
-0.520512 0.46119 0.680846
-0.52864 0.42531 0.701193
-0.535883 0.387472 0.720819
-0.542194 0.349174 0.738642
-0.547465 0.310709 0.754669
-0.551652 0.272287 0.768945
-0.554751 0.234045 0.781532
-0.556801 0.196007 0.792505
-0.454627 0.581324 0.624359
-0.467588 0.54856 0.64794
-0.478604 0.515224 0.670825
-0.48851 0.480943 0.692579
-0.49696 0.4454 0.713758
-0.504383 0.408527 0.733941
-0.510948 0.370831 0.752568
-0.516573 0.332692 0.769491
-0.521181 0.294385 0.78469
-0.524708 0.256057 0.798233
-0.527161 0.217667 0.810207
-0.41855 0.600246 0.632699
-0.431415 0.567904 0.657691
-0.443238 0.534463 0.681548
-0.453861 0.499958 0.7043699999999999
-0.463345 0.464476 0.726026
-0.471715 0.428113 0.74641
-0.479015 0.391037 0.7653719999999999
-0.485259 0.353477 0.782786
-0.490397 0.315663 0.798613
-0.494298 0.277729 0.812953
-0.496798 0.239421 0.82608
-0.381848 0.617928 0.63979
-0.394671 0.586167 0.665797
-0.406714 0.553046 0.690734
-0.417872 0.518736 0.714477
-0.428081 0.483381 0.736919
-0.437327 0.447169 0.757919
-0.445578 0.410298 0.777375
-0.452819 0.372987 0.795198
-0.459007 0.335482 0.811348
-0.463975 0.298055 0.825892
-0.46703 0.259256 0.839967
-0.330809 0.664009 0.618085
-0.344808 0.634317 0.645464
-0.357683 0.603169 0.672334
-0.36986 0.570604 0.698134
-0.381305 0.536763 0.722733
-0.39196 0.501797 0.745993
-0.401784 0.46588 0.767787
-0.41075 0.429209 0.787991
-0.418836 0.39199 0.806514
-0.426047 0.354438 0.823275
-0.43239 0.316765 0.8382269999999999
-0.436797 0.278293 0.8523999999999999
-0.294125 0.678016 0.621701
-0.307705 0.649109 0.6500589999999999
-0.320668 0.61876 0.677432
-0.332901 0.586935 0.703898
-0.344498 0.553764 0.729217
-0.355422 0.519388 0.753232
-0.365631 0.483967 0.7758079999999999
-0.375091 0.447681 0.796821
-0.383783 0.410714 0.816167
-0.391699 0.373241 0.833769
-0.398875 0.335379 0.8495779999999999
-0.405387 0.296972 0.86365
-0.2572 0.690928 0.6240249999999999
-0.27084 0.662597 0.653117
-0.283747 0.632967 0.681134
-0.296013 0.601965 0.708125
-0.307673 0.569593 0.7340329999999999
-0.318747 0.535959 0.758701
-0.329209 0.501199 0.78199
-0.339019 0.465475 0.803774
-0.348149 0.428954 0.823942
-0.356585 0.391792 0.84241
-0.364316 0.35409 0.859141
-0.371318 0.315758 0.874197
-0.234162 0.674764 0.6549159999999999
-0.247149 0.645855 0.683425
-0.259358 0.615682 0.710894
-0.271014 0.584185 0.737277
-0.282146 0.551401 0.762487
-0.292758 0.51743 0.786396
-0.302809 0.482412 0.808877
-0.312266 0.446497 0.8298139999999999
-0.321102 0.409831 0.849116
-0.329287 0.372521 0.866731
-0.336738 0.334556 0.882697
-0.210919 0.657414 0.684469
-0.223086 0.628102 0.71228
-0.234677 0.597519 0.739043
-0.245789 0.565663 0.764686
-0.256474 0.532578 0.789111
-0.266678 0.49838 0.8122
-0.27637 0.463202 0.833831
-0.28552 0.427176 0.8539059999999999
-0.294076 0.390414 0.87236
-0.301948 0.352954 0.889192
-0.187226 0.63924 0.712421
-0.198783 0.609609 0.739429
-0.209808 0.578734 0.765393
-0.220514 0.546603 0.790231
-0.230801 0.513315 0.813829
-0.240648 0.478982 0.836066
-0.25004 0.44371 0.856841
-0.258901 0.407616 0.8760749999999999
-0.267133 0.370765 0.893739
-0.163366 0.620492 0.738546
-0.174274 0.590654 0.7646999999999999
-0.185012 0.559508 0.789851
-0.195327 0.527185 0.813867
-0.205253 0.493787 0.836612
-0.214833 0.459365 0.858002
-0.223938 0.424035 0.87795
-0.232464 0.387884 0.896399
-0.139107 0.601492 0.762675
-0.150064 0.571348 0.788042
-0.160398 0.539993 0.812416
-0.170291 0.507599 0.83558
-0.180044 0.474109 0.857489
-0.189351 0.43962 0.878074
-0.1981 0.404241 0.8972519999999999
-0.11564 0.58211 0.785032
-0.126208 0.551838 0.809576
-0.135826 0.520431 0.83307
-0.145762 0.487907 0.855425
-0.155293 0.454347 0.876547
-0.164199 0.419799 0.8963909999999999
-0.0914992 0.562934 0.805179
-0.101964 0.532599 0.828918
[...]
CELL_DATA 3055
SCALARS gaussian_curvature float 1
LOOKUP_TABLE default
0.9930401177654382
1.0113116691292081
0.9099307568769546
0.9128236208857358
0.992390054446927
1.1344994568549025
0.911207671830708
1.097449754420471
0.8558864180325068
0.9981771943036954
1.1305913756512094
1.077378473988486
0.9105810209952075
0.9419123932731852
0.851423355955916
0.9780992372307944
0.963125133389807
0.9510769160642027
0.8730305452471239
0.9588437253294912
1.0431328065098606
1.1062801133279083
1.0762139206192212
1.1122799474590417
1.0019932757582923
0.9543589328850234
1.0088884003354468
1.0065389666823594
1.0151568060499834
0.9628466377925113
1.0254346439873858
1.0492414449851846
1.022719465630131
0.9162218474175037
1.0402590136973564
1.0678548681832776
0.9680938104299298
0.9710962557139784
1.014612899234041
1.025159308754846
-1.4128304722752962
-1.2224201178679226
-21.303154135543203
1.1046458956778342
1.242799811090764
1.1061004824654428
1.053844043470999
-18.787504102266183
-0.7466430950451335
1.0951500678442538
1.0933237331681434
1.3945313285061005
0.745207717427663
1.1038025716092381
1.1724433740478029
1.0585723322116019
1.1794695736446106
1.101434527731209
1.0942366107538337
1.0640390998899056
1.0971712867284382
1.063411284694645
1.057553389008549
1.1624235947445316
1.0356684576254267
1.1142748944014271
1.107067898040355
1.1431980769072023
1.1567099873853666
1.1888157936469068
1.1095071210541894
1.1015959917471023
1.1490424562734898
1.0883921293926744
1.1128635401970812
0.8531313669964333
0.864937391466324
1.0998167964076349
0.9056999245460577
1.179185638537198
1.080541169622433
0.9666578258318634
0.9536246035015392
1.172910515346341
0.878667192734728
1.1029699336686067
1.0724115399633436
1.0556838599483325
1.1677603437983188
1.0859040830876878
1.1078805268348324
1.0809207117507913
1.1139275022257213
1.1036953671566914
1.1097350333030649
1.069118932338474
1.1086724906657273
1.1230788545611425
1.107370283577787
1.123326542487672
1.1178501065733464
1.1215635471367913
1.1142667012696028
1.109541694989224
1.0940649991558113
1.1275036681193393
1.1224096442728817
1.1302704504275998
1.1306528624954677
1.1222499339979444
1.1165575009419262
1.1240007006584638
1.1216125743703658
1.1282681922625302
1.1327834252012305
1.1317615605062388
1.1358943813770712
1.1195414297641706
1.1162899538078455
1.1367716005883288
1.136232094268148
1.1255220603113623
1.1373618448441891
1.1292451308216092
1.1369520944836036
1.1157052995724748
1.1132180372689917
1.1427767238717612
1.1452974357917416
1.1205437046425633
1.1387960483788122
1.1253356054301926
1.1358809855044474
1.1091370488736065
1.1080217143137652
1.1461443411550745
1.149715266287438
1.1154499842603751
1.1368885288261903
1.120174060392818
1.1310672248843787
1.1032076649515457
1.1016866303524067
1.144803082859299
1.1511438323138181
1.1091482286365044
1.1311634800751
1.1128098232417556
1.1239319101887908
1.0969954032731002
1.0957789157205846
1.14049112758418
1.1483094264265672
1.1026214027370698
1.1249013189884058
1.1061239477517493
1.1172817770560501
1.0918493443906758
1.0898849395319576
1.1335964973065793
1.1419547360160442
1.0966466015317575
1.1181277844728972
1.1006183170388446
1.1109416706756834
1.0874082391260855
1.0861135269996836
1.1268670039994297
1.1347161749007562
1.0944825647445577
1.1126774234975874
1.0996421122815563
1.1075136173977473
1.0850082043368552
1.08190559422547
1.1193525841360892
1.1263560508407175
1.0948513279574335
1.1082435613505488
1.0975051791399317
1.1030259074168562
1.0869810557263353
1.0822974796427558
1.1137879157078516
1.1197331323935518
1.092321249967421
1.1018704638461851
1.0918504802165865
1.0958789658184258
1.08938160489009
1.0866952618315022
1.1067492119322817
1.1134490098602556
1.089746501607997
1.0924521493163637
1.087006439084266
1.085683601190793
1.0871984966949058
1.086362830226164
1.095602772512815
1.103908337100974
1.0845125543915675
1.0807305948611345
1.080753592999636
1.0782944713626756
1.3143068901444
1.314252769924007
1.0835092636840318
1.0916128932101419
1.2982008807645262
1.0744061718252496
1.2961636908586809
1.0748281035563645
0.742881915985621
0.7552289639735633
1.073563438158961
1.0802304065192843
0.7687532233736859
1.0704831428678454
0.7556049998373155
1.2786705066337913
1.0678494262788518
1.0713516533010825
1.2710802328483481
0.672766387853108
1.0600376447906918
1.0649942019871417
14.355452740503074
14.951211225694564
1.0574822849869434
30.561918645480098
-3.2144016160925726
-14.250399235048988
-22.454910468601433
1.0853991434497356
-9.970800775191954
1.079606514283345
1.0594042145980713
-18.159756932214822
-3.288373490052496
1.081764605587367
1.077117382431668
-15.040834754799594
1.0782659728271542
1.190505443276874
1.0392076425955736
1.1716494127305674
1.0849535493008036
1.0826595528946261
1.1148795125540134
-4.086255695732429
1.0465753821847903
1.0919396748361152
1.1416198404905373
1.0545423630068684
1.0874386543605679
1.0867584912450006
1.1483512536087817
1.1524350607803733
1.1549511061217732
1.094184131237333
1.0885637278767533
1.1148742304759816
1.061347600684642
1.0888796072291835
0.8557111127596073
0.8724809233018094
1.073466101578257
0.8910498660025012
0.9961723925833302
0.7874456544083462
1.126665305265461
1.0481594261268259
0.9290582084355041
0.9144095544312589
1.0106548182160504
0.8136941960349227
0.8934166681548266
0.905182784148683
1.1857278305713852
1.2244446086258693
0.8526910773760006
0.8644508781824269
0.8942498138465116
0.9527741641426957
0.9015115891314274
0.948269823433755
0.909035078425628
1.0832749450892778
0.9334856289152093
0.9248911302622744
0.9119569309779972
0.9360895795550841
0.9703632740327277
0.947737688307487
0.8641063684478438
0.8684462911803903
0.9231986975925126
0.9160904062436972
0.9810632765077945
0.9432611808897505
0.9782810825710662
0.9631045726782629
1.0089047459620857
0.9503541809568654
0.960204767114393
0.9517903925695581
0.9948597026361992
0.9883010321110198
1.0021391683155711
1.0134020177047294
0.9099529089501308
0.9017000357420164
1.0195429312603257
0.9505435604340008
0.9188892115952633
0.8712633603164313
0.9477891944915867
0.965997206057599
0.9510754628128513
0.9419861038642305
1.0938589904106506
0.9012471649582394
0.9765942173295041
0.9880547941283631
0.9644400450428994
1.1728860258741602
0.9732172073443136
1.1186960661031953
0.9396888704819872
1.0098206768696043
1.01762706850782
0.9917257163858781
1.1917856715101385
1.1287108581999568
1.0126412018681827
1.1447621477583028
0.9893339762298392
1.0513231157323422
1.0546979153884597
1.0261554451657706
1.213492626465329
1.1516407609835735
1.0623461569473625
1.178920031360907
1.049062481461005
1.1036472163720463
1.0994767313639708
1.0685212641667245
1.2390902608335184
1.1802238239119798
1.122047081962089
1.2199059078103334
1.1224984935910336
1.1657725845282367
1.154473095465936
1.1186190693814604
1.2706546444838973
1.214566182518222
1.1947804630432404
1.2684232194978196
1.208824437465235
1.239193102982611
1.221271542212935
1.1814155862645754
1.3073297154327195
1.2554278171367008
1.2794087122317142
1.323933048918184
1.3092855167796384
1.3234411879487322
1.3004190238468378
1.2563258282500533
1.3479909374528447
1.3021574874521717
1.376958009698464
1.3867606602485942
1.4221128120125517
1.4177597913935884
1.3909066621298487
1.344244480826147
1.3935921785105798
1.3543305947453785
1.4849639006227373
1.4539684828179482
1.5493144143928081
1.5226720172069825
1.4919889669296658
1.4430865307508651
1.441643816292079
1.4122666431297048
1.6001921711112053
1.5337513932179954
1.6761135106326952
1.6363151299253111
1.5931148621061784
1.5492621716947097
1.49763530253357
1.4742312599966878
1.7213611392716883
1.610464569104388
1.8122741614379079
1.7411759719779916
1.7096537161180925
1.6573287784740725
1.5500407893625006
1.539775259498998
1.8478695197178894
1.7010387747064286
1.954773830147039
1.8790412745954945
1.835359387743686
1.7880566063101084
1.6309890950124
1.6107025125420753
1.966412508244252
1.7963620759820622
2.059710655351703
1.9653927786410579
1.930778786647064
1.9066299765756474
1.6822920905771301
1.6949216094965336
2.0075738451655067
1.8886469533545178
2.151173090460204
2.1265640753598607
1.9602030158845745
1.9767061044735827
1.7992322493878434
1.7619080892694514
2.06706407463746
1.9678744484807154
2.125193832309743
2.0506132212533412
1.9387396423864587
1.9754778289282708
1.7580380212957416
1.827312944208213
1.957752045116155
1.8008394651788078
1.9977535595841729
1.915421590703227
1.9144172942048718
1.9535346491474583
1.675489719306749
1.715427048196309
1.8954376457208926
1.7418419260856124
1.888678506556927
1.8174147558025926
1.8572690144945079
1.9162501774465053
1.6331098067632628
1.6813397255088183
1.7771809267968783
1.6553951534194231
1.7462901073725305
1.6957680847494097
1.7639821234049204
1.8373110719385846
1.5865214727786194
1.639808955839439
1.6703594738983853
1.574310473429961
1.622415724745975
1.5768887469006716
1.6611032079025772
1.723835037984765
1.529689870575862
1.5822738012545066
1.553117918944102
1.4993487320564653
1.487849504259088
1.4796072952167547
1.5560821381892782
1.616123677995343
1.4792557606455092
1.512175172635616
1.4389614024882724
1.4287815773371628
1.384760734875606
1.3828231187668296
1.4520292961741719
1.5038816171901637
1.4285112137824585
1.4592439602510943
1.3457030682404678
1.3371093584152896
1.2988550107038002
1.292198916987398
1.3562790812525536
1.408404641573591
1.3552650343444073
1.4007084311412432
1.263472601298998
1.245786013929087
1.223907734683034
1.2128772410295252
1.2709310106486242
1.316889433065512
1.2799854761550722
1.344554055142501
1.1910933941753883
1.1656855710403424
1.1570106287237678
1.1426332992422306
1.194887066866874
1.235159816724146
1.211945738069472
1.29333687028464
1.1265571062564657
1.0935276132445875
1.0988743818238493
1.0802222182935082
1.128458419203267
1.1627056143620547
1.1506078091358902
1.2459736621626627
1.0695165116234293
1.0243423687380349
1.0723491467656496
1.103608329912871
1.0892212390329503
1.2021812844797266
1.0517987448948656
1.1650107118298916
1.1330464175173556
1.161189492684165
1.2207496414826222
1.149198114584408
1.1388809735468048
1.1191349103366615
1.1877891538824086
1.1499386227031234
1.1590327174504136
1.113477452367051
1.1716837317816071
1.2450102696764542
1.1590721344890613
1.1865173161211822
1.1768032792397594
1.1951543661245903
1.1442507668110706
1.1294597970555225
1.1976068710739631
1.2273433881972402
1.1703964800358757
1.2079210665384048
1.1875383438205598
1.206711843438258
1.1528187691269256
1.1444042006528186
1.2259929565412877
1.2243158110802543
1.1776450647986225
1.2178552371867206
1.192568745057708
1.2136054178281082
1.158630954808089
1.150946522921076
1.234361669395608
1.2412901656500284
1.1783066728288722
1.2208398518508614
1.1910559627262236
1.212552468977813
1.1575854760313118
1.1528334382696144
1.2366244213560942
1.2458964195422282
1.1746196608842703
1.2169231467796242
1.1856043402089533
1.2064113198527182
1.1540575874982348
1.149772692542628
1.2332194763302897
1.2446333680337112
1.167723754290137
1.2084901055366253
1.1754642540255178
1.1954236256282411
1.148363690441549
1.1456822029743297
1.2238540742849606
1.2380716181517188
1.1575583819517314
1.196042250404318
1.1638976049935525
1.1824221018434158
1.1394896930283376
1.1380355012535357
1.2110814528330787
1.2258267968053371
1.1466283896633156
1.1818991664873248
1.1507493181141082
1.1674955980882542
1.1302297812578974
1.1294303076647403
1.195280623458629
1.2108427612434807
1.1343537369328858
1.1656891844755835
1.1378683791335549
1.1524575467021065
1.1204434339829419
1.1204404067587461
1.177736278525069
1.1929241491090439
1.1257333604729463
1.1510994716859564
1.1287986403330619
1.1395755839775203
1.1135661685585068
1.1117908842691715
1.1611741758983676
1.1745793449640034
1.1187513948558319
1.1374555417576122
1.117994288994185
1.125921492251507
1.1100289358890414
1.1079089894518321
1.1463735590002155
1.1585683054325346
1.1082954040706827
1.1221563886480892
1.1047518507534715
1.1106856320735563
1.102181347297806
1.1031577732545177
1.1293344331459636
1.1420175539919846
1.096421732720676
1.1053758738448958
1.0918248036416967
1.0948451634458318
1.0919586021893828
1.0941746634493015
1.1115457954200447
1.1240335981465794
1.0860017648156663
1.0897305036136764
1.0822946069541286
1.0830029859480028
1.0839494234850626
1.0853093317797997
1.0950793676553174
1.1063639490626223
1.0790548338701038
1.0793476391116552
1.0758406742572024
1.0754251005048792
1.080835040102034
1.0820224718554547
1.0825083389121652
1.091512549790154
1.0747124290335082
1.0714632052831752
1.0773098365800928
1.074476186582083
1.0749890006274312
1.0778974520830555
1.0731074411533885
1.0802300361756025
18.309275627917806
1.0745298427842602
18.519511747528888
1.2875996123933564
35.15821970208011
17.92653048233632
1.0686795962282292
1.0702701758962652
1.2765821594142757
0.6541414417041863
1.060664607746073
1.0658318141691225
14.375286105350998
14.991413459362818
1.0543512440478038
31.093494876276186
0.9378065936182227
0.936763553485886
0.9355429016168618
0.9322197299323972
0.926234540477074
0.9410251252768989
0.9485232493053786
0.9531170507490645
0.9618358266465685
0.9537798735891645
0.9539323657481913
0.9353651543738489
0.9839273203901602
0.8978865037459065
0.9185977296070171
0.8238381370652598
0.9853293568213597
0.9672738354925299
0.8195726685293785
0.888931107872853
0.87553721887346
0.938713922672235
0.9511240993083929
1.1090603956489253
0.9668560451019776
1.0113185922667345
1.0184169404838157
0.8252273196603124
1.1117136515403596
1.2093089217871413
1.1846262673361523
1.1242852412424016
0.9930091209940989
0.9237383949906499
1.1359870041462856
1.1154414958196501
1.1338460800140473
1.08249322204898
1.0970558469981697
1.106044015126853
1.1983738854927428
1.1304495422685872
1.0944182447840278
1.062888346336594
1.1226837055829162
1.1258594953900267
1.1386079523996302
1.1327955740780575
1.1222117593911574
1.1611117062851064
1.1190757200089267
1.111185262480801
1.1457921624155198
1.1333210078089957
1.1481226305289187
1.1414638542439675
1.15421513993698
1.1465589837293315
1.1252945886317258
1.1179853795196877
1.155069002859793
1.1392837175907897
1.1560077333390708
1.1468812243550188
1.1640982764672754
1.165574881657861
1.1288872897164093
1.1230410071923171
1.1612569173885186
1.1408129284720312
1.157890591078882
1.1465731111464463
1.1714073137093284
1.1751874032673628
1.1283822564341683
1.1240541244427757
1.1618198083346558
1.1375122930712451
1.1577494843371163
1.144759449006141
1.173242719297769
1.1794638983628047
1.1252502988917625
1.121880444929101
1.1626044672287732
1.137700728119022
1.1582921582861938
1.146378454507418
1.172638290721585
1.1792062187930412
1.1237588816170714
1.1185556083247077
1.1617895720205569
1.1390454547669833
1.154676275575518
1.14384586210072
1.1721052725006034
1.178641682259052
1.1255841534762712
1.1189753067147554
1.1548823443204723
1.1340739164520783
1.1442557366287331
1.1342777222351372
1.164289773886929
1.174399405622021
1.1226178857810956
1.1189285301390255
1.139894905917976
1.1229262368733721
1.1265360964962654
1.1195454418452573
1.1489846021071957
1.1627528623844094
1.1122671302424347
1.112162584933217
1.1212957551215537
1.1090747656232374
1.1112905086329248
1.1060601737856166
1.1303829209275817
1.144712958491513
1.1012979777541607
1.101109547345243
1.1081949971502543
1.0994254803015369
1.1007674972561523
1.097228315254743
1.1154230183850369
1.1276056956737357
1.0940721256020254
1.0929300312170285
1.0965731942433778
1.0927056893898162
1.0907370795556774
1.0904087567035248
1.1016490113716992
1.1130713356192565
1.088666314455729
1.0878355856211444
1.0863010942115898
1.0877092666924497
1.0829700860566829
1.084706581389695
1.0893218312684463
1.098833633740855
1.085149711763725
1.0838098268407128
1.0773042202083618
1.0825250791616612
1.0754589117602957
1.078943275380583
1.078899368394104
1.0875859712992815
1.0836166006529528
1.0832385479522622
1.0702813114952379
1.0804882603998136
1.0686552963555673
1.0753778816398558
1.0694610416002703
1.0762337900510703
1.0827812859583679
1.082327822430429
1.0617637880002455
1.0750088622799776
1.0660803049613432
1.0726027939567868
1.06248783915259
1.0685590776129443
1.2802348425663843
1.2828968874848168
1.064709684150148
19.397357865821032
1.2571347972350866
19.583260489910526
1.0578756707731856
1.0599703427367255
18.923872616380578
0.8043435248027424
1.245175050129411
0.6279297244882196
1.0511388951650007
1.0562646288937136
13.827814459031329
14.440343970164001
1.0464230806564814
30.078797164511727
3.607507919372999
-1.0426987903402352
-7.55557822420149
5.675115568990999
1.0411468224440426
0.8756601081484474
0.8918980713147246
16.7523094208558
-5.440127340219728
-18.119349910170683
1.3106231632123315
1.3422284344098157
0.9993920754971689
0.9126209931285161
1.0062208149531526
0.9032117694182227
0.9556867657929048
11.909148650308984
0.9002122093265106
1.1489656282810081
0.9750483871718079
0.8867102617971476
0.9430405066786016
0.9577114268388713
0.9895288437439675
0.976995961821048
0.8095569309924175
0.8136496548114871
0.9320717268106189
0.9544526518615708
0.9234243799961609
0.9311343848868431
0.9753518221667958
1.000801058606938
0.9762020565485114
0.9023075007210819
0.9620711754744233
0.931535348025084
0.9638696146113443
0.925623782271323
0.8638355312674828
0.8684688311453972
0.9352915306722867
0.9566399722209864
-20.322466410011643
-2.6677420777769414
-3.2375290176807487
-16.578509713050238
1.072885686782532
1.0729524273365687
1.069623494934638
-16.390595380795272
0.72905822486111
1.076750933549464
1.3027104115318495
1.068423021608015
1.0751674090446752
1.069320291921139
1.07939361175973
1.050485560515244
1.2429292984987643
1.0814844875183356
1.0798058201752303
1.065171248175542
1.0894293757341202
1.0690437278616192
1.0832285355816063
1.0293807945703912
1.0155923772232172
1.0897734538210861
1.0860547683203565
1.0162748590475146
1.0893967744292496
1.0248671503644076
1.0838042580261553
1.1289316493269435
1.1459100645358973
1.0991108098272118
1.0932866490665345
1.1146082631931429
1.0937667333750805
1.1276518308575116
1.047873193377701
1.0255501213802984
1.0484657988309922
1.1010731639190265
1.100824723968064
1.0380686996005741
1.0566893268479391
1.0248475796263474
1.123246844353523
1.0886859554554709
1.089210944899564
1.1044437461236376
1.1029340431973458
1.0737665457984076
1.1499980942914978
1.1064750403137706
1.0843073240796852
0.874050447428623
0.8757487371114594
1.0856826422549013
1.106685811592625
0.926859744255183
1.0900269958498527
0.9084582448062095
1.093793212634965
0.9606921866748598
0.9405913843636629
1.1576003739588918
1.0875652501521278
1.0345622681044606
1.0562716722181953
1.0466546678438755
1.0877192217118976
1.039870552577077
1.0592257023313643
1.0428981803888988
1.114505477535789
1.0334170385780577
1.0597864373657506
1.0394503544292373
1.046464603462643
0.9808937446391769
0.9835907711832197
1.1209076040031072
1.1471331247926124
1.1396510493048697
1.1480763755802823
1.1811043075571377
1.1825153847991445
1.2060817022678778
1.0533577134533647
1.1600177003494596
1.1195270948691767
1.2074293116013544
1.226551817413487
1.1777560100473243
1.1954674386174504
1.194855476975159
1.2349611258939506
1.2825478335327398
1.2504527256875746
1.1895897158457365
1.227293694532123
1.2093757582701554
1.229368308386416
1.1741386974231105
1.1497311569985036
1.2497454882507664
1.2739152484553466
1.2061329827564553
1.2483459691152379
1.2219668620114057
1.244187298253928
1.1863257763157478
1.174117533406822
1.2732845483584478
1.276758681348269
1.2126863353272068
1.2585283833631071
1.226656458168707
1.2502780699620848
1.1907446603646896
1.1802179806081807
1.2812860316474841
1.291883525781515
1.2125788370193773
1.2594270725992254
1.2250522203581162
1.2482788441445867
1.1905266324887178
1.18266257867553
1.280958889439847
1.2945675350870833
1.2088295023120181
1.2550811284142502
1.2182704888726272
1.241295491188389
1.1863788907212207
1.1805494042366593
1.2760903870388547
1.2908199196098127
1.2006385330921525
1.2449532054211243
1.2085086505436604
1.2297983205568703
1.180096015859048
1.1752773600487256