# vtk DataFile Version 1.0
Tissue data
ASCII

DATASET POLYDATA
POINTS 1593 float
0.0709625 -0.660725 0.77929
0.0526093 0.540093 0.881197
0.207655 -0.805685 0.569663
0.190476 -0.786839 0.606984
0.172737 -0.766583 0.642417
0.153269 -0.745886 0.674992
0.132444 -0.725347 0.704333
0.1109 -0.704824 0.730769
0.0906576 -0.682702 0.755751
0.105598 -0.654162 0.784525
0.143013 -0.64512 0.78986
0.180057 -0.63623 0.793352
0.21806 -0.626244 0.795658
0.257008 -0.614884 0.79679
0.296807 -0.601955 0.796625
0.337309 -0.587346 0.795003
0.378321 -0.571004 0.791749
0.419616 -0.552922 0.786696
0.460939 -0.533138 0.779703
0.502019 -0.51173 0.770662
0.542575 -0.488807 0.759502
0.582327 -0.464511 0.746198
0.618731 -0.440538 0.731755
0.653247 -0.416148 0.715838
0.686446 -0.391027 0.6982349999999999
0.718805 -0.364803 0.678632
0.751362 -0.336491 0.656104
0.781843 -0.307918 0.632065
0.810172 -0.279311 0.606644
0.836229 -0.25084 0.580181
-0.224509 0.804104 0.559372
-0.202774 0.785574 0.59948
-0.180264 0.7649 0.638044
-0.15571 0.742884 0.674243
-0.129162 0.720626 0.706836
-0.101418 0.697995 0.735926
-0.0762629 0.673352 0.763034
-0.0530007 0.651092 0.7864369999999999
-0.0305915 0.628897 0.807829
-0.00929075 0.606935 0.82762
0.0112127 0.585274 0.846027
0.0316251 0.56311 0.863822
0.0706256 -0.633965 0.8047759999999999
0.0698509 -0.606337 0.829439
0.0691129 -0.577642 0.853345
0.0685012 -0.546956 0.8771639999999999
0.0679482 -0.514222 0.900749
0.0673973 -0.479394 0.923913
0.0668125 -0.442449 0.946437
0.0661652 -0.403391 0.968068
0.0654209 -0.362261 0.98852
0.0645338 -0.319151 1.00748
0.0634679 -0.274185 1.02464
0.0621958 -0.227526 1.03966
0.0606894 -0.179387 1.05224
0.0589689 -0.132609 1.06164
0.0569711 -0.0857851 1.06819
0.0547678 -0.0382774 1.07188
0.0531179 0.0105778 1.07258
0.0535335 0.06171 1.06989
0.054186 0.111849 1.06406
0.0547275 0.160717 1.05529
0.055272 0.20815 1.04386
0.0565825 0.254013 1.03013
0.0576526 0.296143 1.01518
0.0573602 0.336403 0.998695
0.0567291 0.374781 0.9810099999999999
0.0559828 0.411213 0.962395
0.0552268 0.445659 0.943111
0.0544963 0.478086 0.9234
0.0536558 0.509481 0.902815
0.0841968 0.530567 0.886887
0.119304 0.521423 0.892585
0.157529 0.512245 0.895863
0.196986 0.50227 0.8979469999999999
0.237548 0.491211 0.8984719999999999
0.279069 0.478928 0.89721
0.321337 0.465303 0.89393
0.364104 0.450268 0.888433
0.407095 0.433803 0.880561
0.450017 0.415936 0.870203
0.492571 0.396737 0.857306
0.534458 0.376309 0.84187
0.575391 0.354788 0.823948
0.612772 0.333666 0.804917
0.648125 0.31229 0.784343
0.682056 0.290388 0.761987
0.715079 0.267649 0.737476
0.748256 0.243231 0.70974
0.779301 0.21872 0.680512
0.808119 0.194289 0.650021
0.834642 0.170106 0.618483
0.858815 0.146173 0.586255
0.0384442 -0.651557 0.788992
0.00673168 -0.642308 0.797659
-0.0247199 -0.633046 0.805653
-0.056954 -0.623223 0.813605
-0.0902054 -0.61226 0.821658
-0.128552 -0.601511 0.829507
-0.170869 -0.589898 0.834714
-0.213965 -0.57697 0.838738
-0.257617 -0.562434 0.8412149999999999
-0.301606 -0.546212 0.841944
-0.345727 -0.52829 0.840691
-0.389722 -0.508697 0.837279
-0.433304 -0.48751 0.8315899999999999
-0.473654 -0.46624 0.824088
-0.512325 -0.444232 0.814725
-0.54993 -0.421217 0.803404
-0.587018 -0.396877 0.789899
-0.624818 -0.370304 0.7735029999999999
-0.660764 -0.343222 0.7551869999999999
-0.694711 -0.315845 0.735144
-0.726552 -0.288381 0.7135859999999999
-0.756223 -0.261024 0.690727
-0.783687 -0.23395 0.66679
-0.808954 -0.207318 0.641979
-0.832054 -0.181281 0.616468
-0.85299 -0.155847 0.590606
-0.0899975 -0.812382 0.58412
-0.0786908 -0.788312 0.62351
-0.0581559 -0.768949 0.6535219999999999
-0.0355666 -0.750733 0.67883
-0.0129729 -0.733143 0.701215
0.0088377 -0.715712 0.721811
0.0295816 -0.698217 0.741234
0.0501736 -0.680018 0.76033
0.273049 0.796961 0.552499
0.255698 0.77768 0.594054
0.237607 0.756599 0.633916
0.218415 0.734068 0.671779
0.197791 0.710691 0.706952
0.175994 0.686879 0.739136
0.153438 0.662909 0.768298
0.130625 0.638898 0.794782
0.108274 0.614687 0.818932
0.0885578 0.58959 0.840939
0.0706058 0.564546 0.861866
0.0217094 0.529815 0.8887269999999999
-0.00819868 0.519138 0.896104
-0.0377858 0.508014 0.903443
-0.0683534 0.496173 0.910797
-0.102855 0.483811 0.918695
-0.143869 0.468381 0.92622
-0.186205 0.453129 0.93151
-0.229399 0.436958 0.93474
-0.273251 0.419609 0.935757
-0.317512 0.400968 0.934327
-0.361892 0.38101 0.930254
-0.406073 0.359777 0.923403
-0.449721 0.337363 0.9137109999999999
-0.49 0.315312 0.902003
-0.528445 0.292912 0.888165
-0.565664 0.269879 0.872099
-0.602201 0.245896 0.853557
-0.639258 0.220102 0.831691
-0.674317 0.194178 0.8078569999999999
-0.707256 0.168317 0.782317
-0.737995 0.142695 0.755334
-0.766491 0.117475 0.727167
-0.792731 0.0927985 0.6980649999999999
-0.816726 0.068785 0.66827
-0.838522 0.0455337 0.638
-0.858189 0.0231311 0.6074539999999999
-0.875791 0.00161453 0.576861
-0.863731 0.101574 0.587346
-0.861647 0.0621729 0.597992
-0.83697 0.251849 0.574631
-0.84038 0.209555 0.590701
-0.842182 0.167654 0.604962
-0.842454 0.126311 0.617457
-0.841185 0.085666 0.628455
-0.804271 0.323299 0.58357
-0.810489 0.280041 0.602285
-0.814913 0.236861 0.619173
-0.817688 0.194018 0.634091
-0.818877 0.151689 0.647152
-0.818532 0.109985 0.6584909999999999
-0.765083 0.395943 0.587495
-0.774256 0.352428 0.609125
-0.781531 0.30856 0.628943
-0.78704 0.264672 0.646653
-0.790827 0.221 0.662349
-0.792992 0.177749 0.676071
-0.793603 0.13503 0.687931
-0.719446 0.468258 0.5858
-0.731621 0.425306 0.610391
-0.741827 0.381509 0.633356
-0.750207 0.33724 0.65418
-0.756772 0.292781 0.672904
-0.761612 0.248413 0.689489
-0.764789 0.204345 0.703999
-0.76639 0.1607 0.716521
-0.668175 0.538067 0.578273
-0.682954 0.497089 0.605422
-0.696026 0.454201 0.631575
-0.70725 0.410349 0.655712
-0.716628 0.365836 0.677772
-0.724232 0.320989 0.697611
-0.730101 0.276077 0.715232
-0.734298 0.231324 0.730673
-0.736899 0.186855 0.744012
-0.615717 0.599905 0.566028
-0.631344 0.563074 0.59483
-0.645356 0.524694 0.622681
-0.658909 0.482331 0.650294
-0.670844 0.438625 0.675949
-0.681086 0.394105 0.699351
-0.689611 0.349069 0.720463
-0.69644 0.3038 0.739263
-0.701605 0.258519 0.7557969999999999
-0.705175 0.213349 0.770133
-0.576808 0.623374 0.579813
-0.593026 0.587049 0.609806
-0.607832 0.549067 0.638506
-0.621117 0.508874 0.66653
-0.633263 0.465839 0.693739
-0.644032 0.421658 0.718616
-0.653267 0.376725 0.7411099999999999
-0.660896 0.331348 0.7612329999999999
-0.666901 0.285751 0.779032
-0.671327 0.240028 0.794577
-0.516941 0.680616 0.5598839999999999
-0.536439 0.645922 0.591564
-0.553427 0.610029 0.622659
-0.568949 0.572436 0.65243
-0.582633 0.532831 0.681586
-0.594952 0.491105 0.709557
-0.606031 0.447825 0.735553
-0.615733 0.403461 0.7593179999999999
-0.623935 0.35838 0.7807729999999999
-0.630543 0.312813 0.799966
-0.635563 0.266765 0.816981
-0.472898 0.701822 0.569435
-0.492281 0.667962 0.602958
-0.510299 0.6322 0.635238
-0.526717 0.594599 0.666423
-0.541612 0.555264 0.696243
-0.554995 0.514314 0.724514
-0.566899 0.471955 0.750991
-0.577313 0.428471 0.775457
-0.586155 0.384166 0.797812
-0.593247 0.339243 0.818146
-0.598389 0.293449 0.836794
-0.427918 0.721185 0.577504
-0.447269 0.688224 0.612271
-0.465556 0.653072 0.645919
-0.482601 0.615944 0.6782509999999999
-0.498316 0.577003 0.709086
-0.512686 0.536467 0.73817
-0.525667 0.494578 0.765317
-0.537229 0.451613 0.790361
-0.547302 0.407889 0.813196
-0.555659 0.363771 0.833865
-0.561525 0.317573 0.853873
-0.36079 0.7686 0.548249
-0.382346 0.738584 0.583904
-0.401889 0.706498 0.61971
-0.420307 0.672186 0.654395
-0.437613 0.635834 0.687762
-0.453756 0.597599 0.719583
-0.468705 0.557673 0.749649
-0.482444 0.516289 0.777745
-0.494945 0.473702 0.803702
-0.506205 0.430185 0.827371
-0.516223 0.386022 0.848644
-0.5237 0.340433 0.868846
-0.315817 0.78231 0.5529189999999999
-0.336788 0.753501 0.589747
-0.356556 0.722502 0.625708
-0.374957 0.689257 0.661014
-0.392284 0.653912 0.695136
-0.408564 0.616617 0.727784
-0.423793 0.577548 0.758732
-0.437958 0.536909 0.787775
-0.45105 0.494921 0.814733
-0.463064 0.451802 0.8394659999999999
-0.474036 0.407709 0.861876
-0.484056 0.362485 0.882011
-0.270403 0.79427 0.55638
-0.291664 0.766331 0.593865
-0.311405 0.736299 0.630404
-0.329782 0.704191 0.666022
-0.346976 0.669992 0.700609
-0.363181 0.633809 0.733847
-0.378454 0.59579 0.765495
-0.392803 0.556112 0.795342
-0.406219 0.514968 0.823209
-0.418695 0.472549 0.848952
-0.430218 0.428983 0.87249
-0.440749 0.384176 0.893882
-0.246982 0.777061 0.596922
-0.266878 0.748003 0.633723
-0.28505 0.716997 0.669598
-0.301984 0.684006 0.7044009999999999
-0.317945 0.649049 0.7379749999999999
-0.333074 0.612223 0.770093
-0.347408 0.573674 0.800547
-0.36095 0.533571 0.829154
-0.373681 0.492084 0.8557669999999999
-0.385571 0.449343 0.8802909999999999
-0.396507 0.405338 0.9027499999999999
-0.223135 0.757573 0.636086
-0.241071 0.72771 0.671913
-0.257577 0.695959 0.706723
-0.273139 0.662298 0.740379
-0.287965 0.62677 0.77272
-0.302122 0.589479 0.803554
-0.315626 0.550566 0.8327
-0.328454 0.510185 0.860003
-0.340559 0.468464 0.885355
-0.351822 0.425442 0.908734
-0.197979 0.736332 0.6733439999999999
-0.213967 0.705898 0.7078059999999999
-0.228995 0.673596 0.741272
-0.243389 0.639433 0.773586
-0.257232 0.603497 0.804561
-0.270566 0.56589 0.8340259999999999
-0.283358 0.526746 0.861823
-0.295554 0.486186 0.887827
-0.307038 0.444273 0.911984
-0.171188 0.713913 0.707931
-0.185646 0.683068 0.740858
-0.199557 0.650319 0.772881
-0.21297 0.615778 0.803782
-0.22603 0.579563 0.833343
-0.238685 0.541758 0.8614269999999999
-0.250862 0.502467 0.8879
-0.262468 0.461758 0.912681
-0.142996 0.690876 0.739266
-0.156582 0.659641 0.770729
-0.16955 0.626504 0.801369
-0.182225 0.591665 0.8308989999999999
-0.194676 0.555289 0.859054
-0.20675 0.51736 0.885797
-0.218375 0.477928 0.911039
-0.114288 0.667407 0.767753
-0.12715 0.636173 0.79743
-0.139432 0.602435 0.826785
-0.151447 0.567319 0.855019
-0.163408 0.530974 0.88176
-0.17497 0.492928 0.9072749999999999
-0.0872634 0.644428 0.791285
[...]
CELL_DATA 3055
SCALARS gaussian_curvature float 1
LOOKUP_TABLE default
0.5004964387334822
0.3609375271784963
0.4648979530228114
0.31116115051084475
0.5162720126485889
0.8883048460884208
0.3710718267575102
0.9597978573512127
0.582123749575288
0.7876446343998466
1.085727840689465
1.0206661147115614
0.4072356006332777
0.41405173073190377
0.18737949947730168
0.5271718504617613
0.5056786160838774
0.4205040037746168
0.48107123017282044
0.48183676840697887
0.4747043479224474
0.6584210843474166
0.5157198729820484
0.7250317661396967
0.1911056483741867
0.24383160862335346
0.2977081002112343
0.3119778135041766
0.44181805834126486
0.032133390611303936
0.3888493554930087
0.4736669173109762
0.3262628455869198
0.23728556840038545
0.18934863187363243
0.7191150342705755
0.09051452364658631
0.367567182971879
0.19916258500556966
0.223693158495064
-0.6706348578512836
-0.6419034368254168
-10.690573200180674
1.0471758115524914
0.9902011122309082
1.0318900450562885
0.9461839247088386
-8.964194832302233
-22.493633864238657
1.0295698329317091
1.0381375314063748
1.1599955067305476
0.71563166144215
1.0273226371507271
0.9457164585440605
0.9713416359390786
0.975441577679862
1.0446813396599433
1.0316427689447223
1.0963854918588487
1.266647352523266
0.9914035424114258
1.0859060923859127
0.967005062665495
1.0574076708991988
1.0584407237081563
1.0557375197450256
0.8586898669820203
0.8988943855907578
0.9957168770465998
0.8246366778026686
1.0698297930495997
0.8083469855719646
1.0100524196462175
1.0483777865618435
0.591244976144617
0.596799743837255
1.223875792074605
0.5847188768210452
1.1119596516573091
0.9722491952319217
0.37634466091427077
0.36658106800713874
1.0453047115349612
0.4837489370838238
0.9188334394654931
0.8743592353673194
0.8129496892757547
1.093898646403046
0.8221384179811718
0.9852118181570255
0.8755907755557893
1.0004763222916075
0.952264825781936
1.0164468378992797
0.8122485007731729
0.9246726214306913
1.050288617126482
0.9613558820055407
1.0476866558206128
1.006965417209343
1.0776450086392333
1.059067733546613
0.9474598671930688
0.8750265361868479
1.089806214614867
1.0215085115797533
1.0905964786365454
1.0630200142127018
1.1026542368062942
1.0878910695247914
1.0034118326743946
0.9749727234915124
1.115504166633754
1.0720462762917955
1.1183735022794647
1.10249207636135
1.118769036662119
1.1067093708563374
1.0617630925150459
1.0346401515305934
1.1301331019754053
1.1092562025327224
1.1338621654161043
1.128866691891536
1.1246502564097012
1.1161555267421255
1.1051608916686237
1.0881135817205019
1.1348040659641359
1.133715242993373
1.138873452900194
1.1427801034539993
1.1228995475477834
1.1164748014340478
1.1352973609519994
1.126353498986064
1.130807968730268
1.145284132069834
1.1343182759532848
1.1448877887390454
1.1148766035359623
1.111037569289536
1.1519304568159303
1.151008546158722
1.1213700863488465
1.1458521071430567
1.1255412198893895
1.1394537278978392
1.1041205993342822
1.1011374237444151
1.1568128403918108
1.1624948467338956
1.1103254314290667
1.1393773315191842
1.1135029538285237
1.1286423459101915
1.0923439397297472
1.090310241175506
1.1519200419989006
1.1629571716263096
1.0973862300036432
1.1275421137793098
1.1003588639255235
1.1153753556195223
1.0813023680456286
1.0794376001711896
1.1414772935242747
1.155120236134873
1.0878018281826696
1.1156889217823758
1.0915610806010607
1.1044316825067682
1.0737652153335149
1.0702383891183542
1.1284448177185735
1.142066431300685
1.0821207119747587
1.1048849110501078
1.083653043107422
1.0935466402770633
1.0706146212602679
1.0660183770374152
1.1161900508024214
1.1284927181952797
1.0744807510108814
1.091923941644844
1.0740157758392441
1.0815653693035654
1.0679618882643214
1.065628089646371
1.101214988064424
1.1141428264489572
1.0692201420340262
1.0781377808831798
1.0681820845579755
1.069550129942808
1.065783660397396
1.064060431456054
1.0845203009093844
1.0972389357493502
1.0653884806386813
1.0656247123125726
1.0636375535204232
1.0625057398094822
1.2925767684535021
1.2919338907361664
1.0695946102750435
1.0799025479314837
1.2886077962996514
1.059010352355726
1.2870189882616319
1.0585533580286473
0.7678504429333464
0.7700684879689388
1.0589043834578948
1.0663696688741218
0.7927664398102588
1.0545632809686898
0.7876125864510491
1.2778750578424645
1.0532707260902834
1.0571548342524095
1.2720130967053875
0.7066350260187355
1.0469294763136392
1.0514988825723097
11.524028914431891
12.087827882547044
1.04535037374214
24.12508457879855
-1.7301603973046837
-5.799393274973244
-12.68682859027462
1.0209470483712102
-3.0672073520116876
0.9819400564504448
0.9630185337361077
-9.929099817063303
3.019016595834281
1.007807717335015
1.0144290448704385
-4.014908706791608
0.9669600664889223
1.0461367005203264
0.9057075574666078
1.003805714212349
1.0065851015666496
1.0084257604919769
1.1809347233873733
0.15011520182323457
0.9154110090738754
1.1612833847449775
0.953363286092298
1.101137505017659
0.9801545868542973
1.0100761703247572
0.9044340348445823
0.8817543871790007
0.9432999386357053
0.8520228867700603
1.010547990595731
0.7714967198047253
0.9041743836910345
0.9789813089280492
0.504112759729886
0.49637802807708975
1.1409111356150707
0.4007093882200533
0.8189699593765755
0.3178194827725637
1.0457343062396474
0.876245606275637
0.23485976322808813
0.25773696777258587
0.39986258427197896
0.11808949513083626
0.03166658695726626
0.25104397442013526
0.8704013052980116
1.1943318510271845
0.35993055595554035
0.39381091860530265
-0.057349288270372084
0.4356057511013834
0.10266610854008049
0.376243760448967
0.2577598828742439
0.817314479127915
0.4378935467357937
0.4951728308792497
0.08355576209773073
0.36042187065504455
0.31517572817555073
0.3184641848239781
-0.1936677502653228
0.14055176732164296
0.38366786685195653
0.40177755228028933
0.23969119057395968
0.3356710195901603
0.22044711642379344
0.31313848879156675
0.2871763236911232
0.08543734892966086
0.41650064903559136
0.42253981046632116
0.19819624632121174
0.4207278635260734
0.1334273344327071
0.2031633376524524
0.3827332119794475
0.3559734666903719
0.1486633864100073
0.2505063218178718
0.34407306446054614
0.11086502703248076
0.36225814929850425
0.459672298051921
0.40142174851927614
0.27895473829674944
0.7986224188580917
0.052252337740060925
0.32052689603537965
0.39858294225256147
0.34609246457966764
1.0892766625684045
0.227548227710687
0.7811757287319776
-0.000280730055274403
0.28507221267069754
0.3543023678712555
0.29863468185644154
1.0904805187818738
0.9204859297955886
0.18351386244780318
0.7728685031266049
-0.04828405849698528
0.2557176394558445
0.31134941196692845
0.2543089596244194
1.1044732267702664
0.9259817263642551
0.14450091486210315
0.772253754044711
-0.09151494752805413
0.23223619370172383
0.2715912044578061
0.2066417806178429
1.1259563867997167
0.9410249958545117
0.10800136503417916
0.7795086957957666
-0.13345367643558415
0.21430251309622536
0.23017036431322696
0.15774434134669663
1.156999401814553
0.9634295324755162
0.07278671807918141
0.7928887793263826
-0.17200613690649186
0.20033973480889983
0.19252382558033346
0.10845243034461576
1.1959493525900533
0.9948537923786829
0.040874358970809446
0.8120332363593363
-0.2048477931359171
0.193965212537218
0.15963721435413936
0.06649382597799011
1.2417605215261638
1.0331275932393982
0.012844636131227105
0.8381834433202418
-0.229738656758125
0.1967871447577545
0.1288337878580814
0.02990421397426709
1.293306492704632
1.0788155470884357
-0.007746577645312086
0.871940338659086
-0.23709437086314325
0.21606674392537534
0.09749699906901807
-0.008505928316940553
1.3507574407367344
1.1307272962197934
-0.0177616794364958
0.9110925306022647
-0.2113975811798035
0.2642955140704384
0.0644814657884222
-0.04960764892389507
1.4040953314118352
1.1878866468125944
-0.007142132307887322
0.9384719330450713
-0.16951429673563811
0.30040667336707855
0.020034342237000693
-0.10197796140999749
1.4236387805368134
1.2424651623717513
-0.009041411674631655
0.9612584642061586
-0.15400481621241563
0.34637408956565796
-0.03831442944378441
-0.17161083995990287
1.4392760029521892
1.2635910596048514
-0.042635347637366844
0.9871136989506029
-0.203391856554819
0.32597828425507713
-0.11726263265444176
-0.2579051189986433
1.4741487453646234
1.311426674725709
-0.13343171456909325
1.090383611167897
-0.30323980071920953
0.39120538420788453
-0.21956658605897483
-0.36415401306177553
1.6449902965106646
1.3676200160118652
-0.20042170877322854
1.1615687088213944
-0.38763748531073977
0.2799077473567889
-0.26271562294037204
-0.45166858637623464
1.7184796313693615
1.5027229920986196
-0.2283454856767086
1.0309187436164962
-0.43470521621131214
0.15701378041436395
-0.2149250650899917
-0.4365109788911664
1.6329330397800654
1.4388329660683254
-0.207819450161405
0.9359989755958642
-0.44251933541315375
0.10958009371843935
-0.13926457204804485
-0.35272991751123506
1.5391295727738696
1.3621586737559388
-0.18510439776517856
0.8496724493405835
-0.43086014994848093
0.05181726802568809
-0.06934874212483694
-0.2582088016594519
1.4409936560296153
1.3040318975854768
-0.16671875398142308
0.836890276220652
-0.36637160897959836
0.15456000324830774
-0.01197987372233747
-0.16036561404905364
1.393022611421031
1.1992708099150986
-0.11018436475571107
0.3798692421725411
-0.03589282310550132
-0.0667708284051553
0.015408267230949832
-0.08604009673385186
0.9562540297296585
1.287077126005804
0.1498129504218065
0.06945713012700139
0.2347286006013655
0.18525078560621439
0.030721088014236918
-0.02939205352641
0.4582772762015541
0.8984341052265148
0.15942707088727046
0.03375824644269357
0.26540392948244274
0.18921292003301698
0.05456901647819217
0.010778683784717647
0.3884637730901254
0.928776458328199
0.19540147349955794
0.028064786459571812
0.29716849835079207
0.20602282076023168
0.0921130382081491
0.057257439781955626
0.354063644270509
0.869917304491386
0.22952501536497594
0.03688314587020512
0.33280686135027526
0.23131066944606488
0.12807915585965396
0.09243420355406123
0.3389297787001428
0.8340683114011065
0.27153420893888847
0.05392770773326894
0.3833251491876795
0.2672148398862704
0.1664742548289887
0.12630104773505352
0.3331675032587547
0.8125970978014883
0.3208803295883446
0.05736594856287899
0.20872920657943603
0.16611407206887122
0.31202802764631826
0.8011167144951954
0.19635959730412303
0.7381401659326876
1.1039337657835726
0.8787045631532178
1.0426773656992758
1.1195312352152813
0.8649941182737778
0.8374511287367732
0.9216147562785071
0.8911700566179821
0.8113608816136579
0.8956783956426089
0.9525292994907621
1.106166243360796
1.00597024230459
0.8982059218741512
1.0094360437638679
0.9814808983377531
1.0376555733236676
0.9810826545428954
0.86056789453907
0.9582743413608656
1.0750977794956027
1.021351567274509
1.0919727832160815
1.0661817164211027
1.0980886829185459
1.0641122782058887
1.023590305743835
0.9460816094719978
1.1409404171988178
1.1024511766394367
1.156374422886568
1.1436762491221657
1.1506972020146373
1.1247204714548444
1.102222870614086
1.0681921488650783
1.185118710848321
1.1698467848607672
1.199448960843395
1.1968752086202437
1.1833556036952517
1.1643681005493183
1.174046120131448
1.1476472783674958
1.2105794796658784
1.2144826332113703
1.2224189791104905
1.2288958848791336
1.1995891170588364
1.1866954910832836
1.222859917485779
1.209451828165333
1.2186308056742376
1.2388200195482677
1.2264422898410046
1.2401545979463913
1.2004347889751787
1.1932325998043893
1.250924554931478
1.2493777045367525
1.2120658252421053
1.2435079222054095
1.2168859083315144
1.234615697189432
1.1910958712757698
1.1872763191756097
1.2590346423952732
1.267785853519465
1.1962060663018799
1.2333434071315916
1.1971240920528083
1.2165316440246028
1.1734719648197496
1.1731818528830487
1.2497020009282993
1.2665010111760033
1.173096643326692
1.2118944023817706
1.172619913232247
1.1920101203155313
1.1521307308665816
1.1534240781105676
1.2295307340271728
1.2505265694667127
1.1514492473657267
1.187692985352601
1.1503713351579652
1.1672248660615554
1.1325979988816601
1.13280275228807
1.2039323171404916
1.2258857837488244
1.1310404500894164
1.1616653211501735
1.126467425051361
1.1402387652085282
1.1164246997134728
1.1169043362979552
1.1764452946606867
1.1982441713599594
1.1092224334648904
1.1323783181979052
1.103560531331651
1.112945075907499
1.0988129700921934
1.1014422113027207
1.145589960342794
1.16823038086393
1.0898358529619854
1.1050410460420084
1.0836019497755467
1.0894225982797217
1.0821178807998075
1.0854330957967764
1.1149750178418805
1.1360906898522598
1.0742206760390896
1.082304707165625
1.070465140597788
1.0727285232201484
1.070302733333173
1.0719660349074522
1.089958179835495
1.1070100427494638
1.065822115232874
1.068337610699151
1.0633851824457103
1.0636372952896271
1.065195502351253
1.0659205850102502
1.0714318755094463
1.0834762607003137
1.0614047883805986
1.0597845480320809
1.0631439847592774
1.0612716315668431
1.06048808875309
1.0618418699365808
1.0603885354701301
1.0673355475379718
14.225456851100764
1.059361492501648
14.45462438663677
1.290401381230087
27.177680116438975
14.014450550469979
1.0550722855399952
1.0575864120432394
1.2825131475259826
0.6964619387696157
1.0486550139712918
1.0522540407137435
11.511233584453102
12.093406632333917
1.0447768530957393
24.2651522817294
0.32195883513595913
0.28920403678143586
0.2949157357073794
0.3409715504467764
0.3941816370306516
0.2612803609580157
0.33775706348117845
0.3175800004734824
0.3883450040707016
0.25991823922360263
0.40939243934814207
0.38556382688516033
0.38844722127590936
0.16907401795522745
0.21360543923304653
-0.07653276768485459
0.3070937397197806
0.23486439718294058
-0.09932014265796807
0.1915862193244697
0.017181337641381828
0.2769344245792698
0.22354070267739773
0.7734319965331868
0.24204943072408175
0.3571200507596177
0.820507181933806
0.1986458290564861
0.7130687756825114
1.128005092803227
0.9959795150864187
0.8610245383513453
0.33767390060629227
0.07301392068387856
1.011324808537895
1.200324469622391
0.8858830040329886
0.826509254585549
0.7985634570680344
0.8741446843556684
1.0700054557147587
0.8047070916919697
0.9073878774644658
0.82522287696493
0.8817744079355034
0.9762276933753066
0.9695046680471968
0.9883767261993661
0.8598254190752779
0.960736919889579
1.0014801138166183
0.980275727675897
1.0085026372121615
1.041202438147918
1.047657888947243
1.06148563173083
1.0129138949685024
0.9519669369433122
1.0569227264741938
1.0293494349669539
1.0825596612441846
1.0980468448268705
1.114696436047053
1.1163558768461521
1.0880599621303355
1.0575694475897353
1.1000769895294475
1.079236064759683
1.1404796011712466
1.1346334872100188
1.1579642503176273
1.1504586955573004
1.1500891253722187
1.1298062611341766
1.1263330791439548
1.110085613482665
1.1767488619675444
1.1546540870994118
1.1835884052922514
1.1689991851844457
1.1913715020966487
1.1821964146477042
1.1393090526268426
1.1268132530186672
1.1988071997877472
1.165446817698267
1.19804238616551
1.1792712241838357
1.2162444826244971
1.2156483282581059
1.144919888246026
1.1331272212596355
1.2093585421983362
1.1692048576742056
1.1985842347259206
1.1772017121834641
1.2282480644610139
1.234369191264938
1.14674837056561
1.1362878076229994
1.2018049069380445
1.1601910924426726
1.1825012441757168
1.1622699522228013
1.2222700847462304
1.2379389347967842
1.1393523635016687
1.133906496133865
1.1794164374733922
1.1423902218639073
1.1563271250658584
1.1395322014092892
1.1989652429807114
1.2225152274912219
1.1228403363603807
1.1218813377782708
1.1503139686043304
1.119477211527543
1.1298617106563655
1.1158198772361474
1.1688921996477821
1.1944541616166293
1.1040331948620488
1.1045382992402681
1.1249942319323272
1.1013620624168954
1.1090244675612544
1.0994341314660407
1.1405854703297431
1.1640311800972332
1.0904100785342785
1.089423876688036
1.1037458162208778
1.0892441835052413
1.0913425384448676
1.086431241824445
1.1153659943325192
1.1362358840703117
1.0807922753684496
1.0800302394466321
1.0854723258447692
1.0796017889948077
1.0773765677770153
1.0764173275474764
1.0935068220546886
1.1109972127664283
1.0742020677763773
1.072579612469223
1.0718875693505563
1.0722426988649865
1.067531543301043
1.068845913045012
1.0762371280672065
1.0897606227035854
1.071822864563593
1.0705977720276527
1.0619127478437147
1.0689313447678808
1.0602563870665045
1.065960614246701
1.062528721372117
1.0724970755460959
1.0700200305910506
1.0695147645667884
1.0546280055604647
1.0653940978817888
1.058418851727848
1.0634807168689755
1.0536498131236858
1.0598941681581278
1.2800466059550588
1.2817018081431408
1.0549806794901766
15.586111028812024
1.2652071378328766
15.791275622013595
1.0498222051060861
1.052282184906979
15.129781178566144
0.8218033746963673
1.2563888279293927
0.6662814836358465
1.044865570773305
1.0485254062926987
11.45842177445072
12.04552460748209
1.0418610595111302
24.32234817973411
3.3698795070419236
-0.21853550155468604
-1.3872659186151883
3.9579104636209075
0.13274228000705218
0.013567105760890485
-0.22318606925635526
6.163859511979658
-0.6964330291948722
-5.053011548905291
1.0555988536217211
1.395153961480299
0.7516371354439872
0.10065698156376718
0.7986328339959723
0.384405855132998
0.7053378821005989
2.1732169007762527
0.3192849898457075
0.918298512640254
0.7639707075711836
0.3247291936704623
0.6351215127537329
0.6101069777159859
0.8327459577304738
0.8211088308118741
0.02791645739859909
0.3062211271430752
0.6068423097799887
0.5179166394794091
0.5290972277067542
0.4651860924439216
0.6671861419397818
0.7642405950728163
0.5254843199740612
0.3208619219387747
0.574083002297268
0.4198390287471049
0.5289781657627901
0.4386453274754595
0.5190901807111696
0.534448238280449
0.4199676147406809
0.4728823589321497
-10.734128286159736
-1.8588434347262721
-2.396074210243229
-7.848446739979209
1.0260061226613926
1.0129071325073644
1.0120751437145001
-7.853385605821527
0.6086739942836862
1.0265968778976764
1.1464955250369273
0.9950328587595386
1.017353268871179
0.9905428806733452
1.0136952795778498
0.9289547209622145
0.941890128867723
1.033123052525488
1.0284356826050933
0.9598786409283617
1.0336111382125548
0.9654431291219991
1.0160232275016878
0.8690789928364921
0.8336650947841518
1.0508090522246818
1.0466629772442857
0.8767638400817601
1.028881059483256
0.8842387910260696
0.9857759120478768
0.9245234669108304
0.9224031078592001
1.0551182405503787
1.0594583225809375
0.8706111961087857
1.0039668670256874
0.875994829479823
0.9078133793749175
1.019554948478211
1.0809421702245652
1.048772197380494
1.0568184234698061
1.0014905785226649
0.9272586800512521
0.9661518196356951
0.860101371269188
0.7864194127820492
0.8098674161086326
1.01744935366461
1.042809383343082
0.7449205738378908
0.891167850641548
0.7082692863336679
0.9605670115038323
0.5261516562028965
0.5323117362600852
0.946314312690965
1.005438506931963
0.48631492873304955
1.0760477910338273
0.4580673145564247
0.795502451687038
0.2519941907054212
0.2551796306710452
0.978537521896048
0.91820320441547
0.15659022829989738
0.17975586570451874
0.21451653148960245
0.21702795148528822
0.10379932396116018
0.08314510655222458
0.2763256928194577
0.19101654857432768
-0.005957846675535165
-0.08728008200723905
0.20519353482859157
0.14452551690582327
-0.05896549398854536
0.11260083797800521
0.09389148839023087
0.23830527403873394
0.6466588225200127
0.6209926375339577
0.9151936129121394
0.950195445848853
0.8238458336872828
0.3293728986828515
0.1879564769671086
-0.10733907326355603
0.8927651205496654
0.8861148122476844
0.8408710003179372
0.7992188590792428
0.9483741245836006
1.1479896281133448
1.0890557291573653
0.7201002021916847
0.9655094943929845
0.9091518089431896
1.0071470877618416
0.9924415435507409
0.9962051065345099
0.9271756164933977
0.8776519545021974
0.9706599215479317
1.0746690569689106
1.0495754788364096
1.1066799704078583
1.0962919364864578
1.0937357214901169
1.0569093644245733
1.063590079095202
0.9749562893685414
1.1582139133752853
1.1497040675558712
1.1872000890011842
1.18907827710317
1.1616203250480028
1.129153046601782
1.1607535848050659
1.1213560539944452
1.216207051781047
1.2290842580455987
1.2412137497347946
1.2522127678973605
1.2071609470662237