# vtk DataFile Version 1.0
Tissue data
ASCII

DATASET POLYDATA
POINTS 1714 float
0.455243 -0.0190852 0.967738
0.347979 0.274443 0.98874
0.446036 0.0140134 0.981528
0.12951 0.484737 0.959831
0.420306 -0.082275 0.991127
0.0788183 0.507508 0.949623
0.355436 -0.223309 1.01107
0.114665 -0.482156 0.971371
0.349633 -0.122144 1.0557
0.380053 0.26357 0.971298
0.447457 0.153396 0.961831
0.353919 -0.187011 1.0305199999999999
0.25371 -0.313483 1.04064
0.241432 -0.3473 1.02659
0.456973 0.11861 0.9633349999999999
0.314744 -0.252257 1.0314
0.213876 -0.371941 1.02546
0.44391 0.0891395 0.982933
0.257975 0.37472 0.984024
0.330012 0.295908 0.988012
0.143276 -0.457602 0.981973
0.269173 0.337303 1.00692
0.416259 0.239949 0.9553349999999999
0.280558 -0.286475 1.0371
0.405022 -0.134267 0.997346
0.459392 0.184745 0.939338
0.168702 0.444888 0.987902
0.290595 0.354622 0.972255
0.372785 -0.158326 1.02313
0.210776 0.438259 0.963063
0.416446 -0.109959 0.990731
0.426834 -0.0494661 0.98954
0.20676 -0.393761 1.01054
0.190122 -0.426785 0.988416
0.246299 0.41148 0.960575
0.320485 0.338173 0.962489
0.450215 0.0534099 0.98034
0.452128 0.217641 0.933367
0.34018 0.319583 0.963085
-0.287201 0.398976 0.940809
-0.324661 -0.349597 0.978687
-0.304497 -0.408814 0.9558099999999999
-0.450826 0.142273 0.918571
-0.393006 -0.311296 0.930106
-0.314359 0.388795 0.923184
-0.422676 0.228269 0.9272509999999999
-0.204446 0.434055 0.98449
-0.417562 -0.182696 0.946614
-0.4087 0.292506 0.9131279999999999
-0.309129 -0.375002 0.976057
-0.198789 -0.453535 0.988439
-0.260948 0.397444 0.970349
-0.2362 0.403923 0.988326
-0.16008 0.458886 0.990132
-0.446142 -0.160183 0.913125
-0.487675 -0.0185205 0.890806
-0.458324 0.0894505 0.921225
-0.461012 -0.122593 0.902251
-0.349818 -0.370298 0.940032
-0.238089 -0.411442 1.00546
-0.336298 0.352611 0.932073
-0.371159 -0.278368 0.97409
-0.390515 -0.333268 0.919215
-0.394231 -0.217127 0.96983
-0.266166 -0.417806 0.980679
-0.471277 0.0536237 0.9123169999999999
-0.475092 -0.0568977 0.900189
-0.480008 0.0234005 0.90384
-0.427289 0.264519 0.90832
-0.396896 -0.288247 0.93781
-0.459855 -0.0863518 0.9124869999999999
-0.386855 -0.251278 0.966549
-0.217368 -0.426865 1.0043199999999999
-0.369048 -0.2219 0.998258
-0.155057 -0.47916 0.982026
-0.380587 0.301847 0.932013
-0.378548 -0.361658 0.914356
-0.368463 0.331322 0.9222279999999999
-0.434329 0.182532 0.928527
-0.115924 -0.505701 0.96994
0.394156 0.144559 1.00772
0.286029 -0.210859 1.0767
0.211559 0.355225 1.04161
0.196245 0.380315 1.03315
0.399586 0.121502 1.0102
0.30719 -0.0839239 1.0986
0.331553 0.231822 1.02294
0.091639 0.423341 1.05394
0.107142 -0.422113 1.03397
0.295784 -0.154282 1.09296
0.351007 0.205446 1.01979
0.368716 0.0204329 1.0488
0.332782 -0.0608223 1.08033
0.136695 0.39116 1.05991
0.375537 0.0668523 1.04002
0.197518 -0.313058 1.07758
0.376142 0.203101 1.00168
0.248953 -0.219411 1.09908
0.310319 -0.174363 1.07459
0.405798 0.178895 0.987706
0.375609 -0.0230895 1.04215
0.364237 -0.0702146 1.05002
0.213304 0.327088 1.05866
0.298904 -0.12646 1.09765
0.288125 0.22965 1.05632
0.154419 0.374003 1.06291
0.165894 -0.338263 1.07592
0.229496 -0.25511 1.09274
0.247242 0.302956 1.04878
0.224437 -0.288995 1.07617
0.285698 0.279044 1.03243
0.122646 0.408434 1.05328
0.138896 -0.355897 1.07513
0.307954 0.241527 1.0352999999999999
0.131682 -0.388375 1.05221
0.396487 0.0917122 1.01948
-0.2542 0.334532 1.02704
-0.21268 -0.372679 1.04789
-0.370599 -0.119582 1.02228
-0.348611 0.203616 1.0078
-0.400161 0.116195 0.982663
-0.310805 -0.23078 1.04565
-0.314336 -0.287215 1.02189
-0.319126 0.291117 0.988267
-0.363762 0.135078 1.01991
-0.138678 -0.420601 1.04553
-0.332779 -0.195229 1.03881
-0.236954 -0.3566 1.04367
-0.28444 0.315862 1.00816
-0.431618 0.0497655 0.956876
-0.419054 0.0810952 0.965895
-0.4205 0.0170252 0.972276
-0.26587 -0.337097 1.03499
-0.200288 0.365785 1.05212
-0.363813 -0.171554 1.01851
-0.271409 -0.303407 1.0487
-0.406221 -0.0747074 0.9852299999999999
-0.185183 -0.360199 1.07222
-0.174611 -0.390736 1.05468
-0.403849 -0.109196 0.983273
-0.38267 -0.147636 1.0032
-0.226645 0.338968 1.05034
-0.328113 -0.221307 1.03463
-0.355024 0.259115 0.974801
-0.342849 -0.177133 1.03552
-0.361401 0.200658 0.997417
-0.167296 0.379522 1.06667
-0.312356 -0.248372 1.03865
-0.370608 0.225366 0.977228
-0.367363 0.169137 1.00512
-0.415854 -0.0469524 0.977082
-0.426732 -0.0146036 0.966535
0.11725 0.18604 1.18351
0.0957367 -0.169962 1.19897
0.0587061 -0.16962 1.22193
0.134185 -0.133842 1.18704
0.0887364 0.212636 1.18646
0.137552 0.152979 1.18551
0.143445 -0.0562023 1.19306
0.193489 0.102315 1.17737
0.0635312 0.227686 1.19139
0.135296 -0.0938572 1.19253
0.165623 0.000240194 1.18875
0.176022 0.145657 1.1708
0.168166 -0.034074 1.18374
0.208114 0.0737778 1.17634
0.182793 0.0390555 1.18461
-0.190798 0.176333 1.18238
-0.23705 0.120676 1.1517
-0.254301 0.0636177 1.14538
-0.192991 -0.179616 1.1682299999999999
-0.226472 -0.118386 1.163
-0.274505 0.0386115 1.12676
-0.266383 -0.0105531 1.13791
-0.24143 -0.0817168 1.15663
-0.200572 0.143051 1.18461
-0.197589 -0.132255 1.18095
-0.251056 -0.0488433 1.15137
-0.161456 0.190087 1.20197
-0.164776 -0.193517 1.18074
0.34533 -0.155146 1.0508899999999999
0.325906 -0.136612 1.07418
0.39475 -0.0595988 1.02046
0.202497 -0.346775 1.05144
0.246215 -0.295704 1.05736
0.0828748 0.466584 1.01155
0.263444 -0.238932 1.07841
0.231149 0.366711 1.01697
0.141007 -0.427975 1.01124
0.303183 0.31167 0.997526
0.420605 0.111572 0.996868
0.425694 0.204932 0.962712
0.127113 0.44247 1.01785
0.390633 0.224954 0.982372
0.393849 -0.0971788 1.01626
0.400999 -0.034868 1.01671
0.321904 -0.209802 1.0489
0.107319 -0.453545 1.00329
0.414627 -0.011408 1.0064
0.225731 0.395389 0.995723
0.334751 -0.101145 1.07369
0.15707 0.408906 1.03448
0.435452 0.174659 0.965713
0.391124 0.00598017 1.02896
0.408438 0.0343328 1.01527
0.269592 0.312517 1.0251
0.372866 -0.122463 1.03291
0.287499 -0.246393 1.05591
0.355855 0.240507 1.0013
0.229056 -0.319082 1.05448
0.425614 0.140605 0.984517
0.175459 -0.369607 1.04719
0.192886 0.412901 1.00639
0.321154 0.270267 1.01102
0.414287 0.0687688 1.00956
0.169286 -0.39973 1.02385
0.254084 -0.269672 1.06703
0.240437 0.339078 1.0305199999999999
-0.294322 -0.34878 1.00575
-0.344666 0.314041 0.9517909999999999
-0.387556 0.272616 0.941593
-0.267828 -0.361442 1.01895
-0.380715 0.189918 0.983217
-0.430269 -0.13183 0.941959
-0.230304 0.36418 1.02868
-0.390528 0.242379 0.952195
-0.118236 -0.464789 1.01261
-0.355948 -0.318428 0.966127
-0.293954 0.350939 0.973459
-0.431956 0.116513 0.944949
-0.213303 -0.397819 1.0292
-0.443053 -0.0634326 0.941281
-0.456721 -0.00441034 0.931835
-0.302636 -0.326878 1.01132
-0.452591 0.0283918 0.935519
-0.435112 -0.0976617 0.94407
-0.444038 -0.0374457 0.945335
-0.347302 -0.266316 1.00289
-0.37883 -0.188301 0.997522
-0.157672 -0.451801 1.00928
-0.248454 0.374451 1.0035
-0.1726 0.41264 1.03245
-0.393006 0.156105 0.982194
-0.183002 -0.424323 1.02323
-0.354821 0.285694 0.961133
-0.409608 -0.143913 0.967697
-0.353302 -0.202357 1.01926
-0.393862 -0.166797 0.98387
-0.258104 -0.38918 1.00741
-0.348179 -0.238149 1.01262
-0.215514 0.39542 1.0149
-0.422551 0.15231 0.948823
-0.444069 0.0659526 0.940647
-0.402281 0.198502 0.9576979999999999
0.464105 -0.421218 0.769173
0.470428 -0.372622 0.802933
0.66424 0.0671231 0.688363
0.320801 -0.554762 0.766435
0.345269 0.563167 0.739754
0.6431 0.140098 0.704614
0.298921 -0.597116 0.715805
0.163834 -0.663814 0.669914
0.466989 0.486634 0.717122
0.385217 0.526761 0.75107
0.168316 0.633542 0.736875
0.348477 -0.530004 0.776962
0.618944 0.29019 0.667256
0.141555 0.643409 0.725755
0.491446 0.466546 0.709784
0.611887 0.260552 0.701823
0.626529 0.227963 0.696453
0.487903 -0.347899 0.800343
0.637111 -0.0260542 0.745129
0.165205 -0.690493 0.621996
0.235243 -0.644038 0.680206
0.438318 0.505593 0.7268479999999999
0.614203 -0.117836 0.754553
0.181494 -0.67668 0.642105
0.642694 -0.0517942 0.730688
0.635308 0.194813 0.6967599999999999
0.129892 0.663028 0.6931809999999999
0.407842 0.511728 0.748444
0.229765 0.619632 0.7376119999999999
0.616769 -0.162503 0.738793
0.102222 0.679016 0.667623
0.630422 -0.132222 0.724943
0.289441 0.614016 0.712827
0.580088 -0.221008 0.769599
0.525497 0.412273 0.716198
0.54277 -0.258411 0.795025
0.267211 -0.601064 0.733628
0.550967 0.377469 0.712888
0.307898 0.593127 0.7280719999999999
0.302518 -0.576536 0.746976
0.51546 -0.329052 0.780523
0.591028 -0.181027 0.7703909999999999
0.657396 0.0137351 0.710206
0.188371 -0.659518 0.669603
0.650086 0.106911 0.703501
0.633218 -0.090123 0.7348359999999999
0.379445 -0.509455 0.771686
0.609378 0.32481 0.661938
0.197069 -0.642029 0.698041
0.412681 -0.472905 0.774788
0.330016 0.581509 0.727406
0.431748 -0.424303 0.805505
0.201816 0.625501 0.740603
0.431488 -0.440317 0.789644
0.362125 0.541014 0.7536889999999999
0.482624 -0.390028 0.773649
0.543215 -0.292678 0.7722519999999999
0.262425 0.612456 0.730906
0.635576 0.16316 0.709594
0.577103 0.3377 0.706906
0.245703 -0.618006 0.719571
0.515178 0.446847 0.699348
-0.641613 0.0219946 0.591674
-0.375906 0.525564 0.717526
-0.525321 -0.400149 0.606408
-0.248613 -0.668797 0.673575
-0.521192 -0.41953 0.5744549999999999
-0.178867 -0.700913 0.6468619999999999
-0.263278 0.586612 0.722473
-0.598262 0.255113 0.65601
-0.29105 0.57172 0.727432
-0.320136 -0.626457 0.683183
-0.538787 -0.368523 0.612919
-0.636674 0.0513083 0.615631
-0.630887 0.00102996 0.633095
-0.634731 0.105462 0.614326
-0.458932 0.455416 0.7048409999999999
-0.564835 0.344571 0.652123
-0.461222 -0.502057 0.626791
-0.628319 -0.0401051 0.622343
-0.209087 -0.690118 0.655685
-0.567545 -0.250062 0.644458
-0.342837 0.553399 0.711098
-0.489881 -0.457781 0.614745
-0.627199 0.149475 0.633358
-0.532992 -0.346998 0.660627
-0.369002 0.550067 0.692173
-0.616626 -0.169138 0.553318
-0.183153 0.6432 0.679381
-0.204977 0.62177 0.7033929999999999
-0.100083 -0.717877 0.628792
-0.434258 0.475404 0.712516
-0.598815 -0.224531 0.557804
-0.540179 0.399402 0.640481
-0.556279 0.379748 0.629894
-0.396592 0.512593 0.713692
[...]
CELL_DATA 3350
SCALARS gaussian_curvature float 1
LOOKUP_TABLE default
0.3515337337605327
1.056674256976451
-0.5473310492569554
-0.3240093011899595
0.04473596411420988
-0.43708281103471236
0.2724681636116643
3.2830555439439015
2.7569488340440813
-0.7987550861292096
-0.18084019160189652
-0.2474747735350802
-0.10844361111730179
-0.5365177554939584
-0.9627058086552682
-1.135064275378654
0.006455418242509392
3.358311986266067
1.093650153426916
-0.0005133506901530416
0.4516410217710597
0.745041372527556
0.5544675755929722
0.07961756937671244
0.7064667484776967
0.37436116571930456
-0.026115840848629085
-0.008277055600704769
0.22237817398831367
1.0486136322466062
0.37020625438515087
1.672475472493772
1.966375666749622
1.265109226796548
-1.076807040976003
-0.45694113401384195
-1.2487764397545782
-0.22826510462314545
0.6307021735730158
-0.6752688858329763
-0.4351431710402863
-1.4138255373383162
-0.5102891682592541
-0.5719087124752961
-0.18094590296777802
-0.6254550700467616
2.5575083115037183
6.343095357445714
6.068398392583185
-1.0328423990164843
-2.170687824616728
-1.1467501369187452
0.38719727888009237
-1.0571168430820714
2.074437848837602
-0.09153955555178928
2.2054159780831277
-1.6131990123370623
-1.5444733205803016
2.6875624878726443
-1.9270449082038636
-1.8928512587334914
1.4904568961195352
-1.3927202872560525
3.816212922970416
-0.6670387511160867
2.051314033211051
4.368588302908162
2.304237535244886
9.01105719214504
2.6898739408055805
8.714025861005927
5.560022671138119
3.9170691541670637
-2.3250291519383164
-1.8941056874105482
-1.0922431402029211
-1.1863909981545544
-1.9635080369635216
-2.158148699535212
-2.0000507740146736
-1.6573095756454719
-1.4314427469114213
-0.6202768986453717
-0.9557737547443599
-0.04156013505879007
-0.23802582873999978
-0.6815335067859418
-1.540371101062079
-1.430703999888002
0.3282025119003579
0.14218914187515713
-0.5166164870428689
0.7365268899545133
0.3055076348547953
0.35311389294100737
-0.7236475711594098
1.4981663956675733
1.8847803489488322
-2.1239550500648394
2.3863069480924874
11.797931013217244
6.370286360917799
-1.8162722726276295
-1.6246412485968327
-1.8170894426370612
-0.31369838833749786
-1.633100425682027
1.6994454355209911
1.1361180905442958
1.454499780594908
1.0138459299541247
0.5036732449959221
0.3809997506600104
2.6391446153421794
1.4258390431473726
2.1214871934092123
2.7714654206273233
1.4187251688658575
2.4592611825566397
0.9393690761470656
1.3862192818028611
0.7946509500594197
0.3790371578072774
0.35807567973408594
0.2635167870280258
1.2863062593353467
1.1028858911696924
0.30020186112614405
0.6924843147329716
0.3219654725960283
0.09396160620515451
-0.27492368540958434
-0.12060473062742696
-0.39672487634540077
-0.04762112821635899
-0.5317068483422465
0.3890275449780577
0.6554850205831709
0.08385437539190854
-0.31951593494301683
0.07237358103203405
-0.06867315803129904
-0.3237634712967627
-0.5210819342010917
-0.39034749855799183
0.7498782111834793
-0.10173772724119268
0.13911822971583593
1.4190644281650155
1.1237177400948357
1.5264464814712586
0.3937920033556602
0.017130819646443737
-0.27068049758295726
-0.1707890928990873
1.1552658645557705
1.9426470890006624
1.1742835783338073
3.4531368862109795
1.6909630061895577
3.709901702200752
2.981055026122107
2.160122543425567
0.4979445478996276
4.0540149424714045
1.6418628352318714
4.039973724465857
5.297215069498435
5.026409035503115
3.809313659687068
3.100977744830727
0.6941641522764028
2.0701398169337666
2.3340181710502845
2.0504658303543533
2.0204439902150204
1.2801904567883227
0.46461465367473753
0.8267966472252762
1.6372563378103355
0.8313012539384015
-0.15300869329759104
1.5183171780408347
1.6055562622751376
2.173551818373555
1.2960479388346577
2.176326483055899
1.7032167850806492
1.3118030597891819
4.7406001447649615
4.817888880482685
1.8005215030429216
2.307510483170842
1.1176734194826377
1.5079100268201133
0.9070278720428551
0.8772800299988679
1.6123890770318465
2.0601169265596377
0.64767821766801
-0.16414603406117678
0.3344906532997783
1.1899475432819042
1.30532622641584
0.44043378203934236
2.519305138936806
3.9743630352491186
1.1134217642377393
0.39635963210334046
0.5658474461009044
0.1307105557608603
1.4389434986487641
2.0787672133886645
0.7887671012619273
2.363607537348484
1.6885418466077338
0.939130865685282
0.5521890151417761
0.2128281590355358
0.22898480423316137
0.7205211735621232
0.04744719744270279
0.6347596010054685
1.6279545320582127
0.7573179749778653
2.1978890756235883
1.4215546598821118
0.7361318361286605
0.42584197024474923
2.4014223914176185
1.7555918190730553
1.7526580646478547
1.4488541549768932
1.5301611631426821
0.2362147398732024
0.7950382755472629
-0.15093478516426484
-0.785584667615751
0.6487508979295871
-0.0015299627492258785
4.735127048632339
1.2958809125419126
0.24581544126189542
1.1989823449857016
0.7462446656231664
0.6874270637839901
1.3499182136663872
1.470394109630914
0.5707539219223138
1.1991417343685682
0.635336335097785
0.6767588134270569
0.41195758380671565
0.5273032915017213
-0.2468031360859076
-0.7217633565525507
0.07446768421956501
-0.9611984540274443
-0.3355308532074639
-0.0267105409563779
-0.5684442114288593
-0.5462510061154859
-1.22279443429935
2.0090956398364646
1.5817303838527235
-0.939759955073602
0.6226771933927111
-0.433110609750895
0.09053294487131305
-1.140313786852471
0.12289247131383943
-0.8970924892750451
-1.936348309437582
-2.6369056173097323
-2.9996180092884055
3.517983753092829
4.263000794263713
5.32033020624261
2.009249909204292
3.8689795056202154
1.031702177754788
3.2584163596296256
1.4214648208794536
-0.03935771090248763
-1.411888742340892
-1.2852541560307542
-0.6272919376462097
-0.7593281574029531
-0.9342052216159008
-0.046590296958133465
0.035959797740826194
-0.5935658037556104
-0.8605890885824579
-0.1220363961081525
-0.3182305654545448
0.5143427519110547
2.043941865226409
1.4730815505884833
1.4971776004245927
0.7769178921732558
0.7456245937147308
0.42744682907120907
0.3987643357530297
0.1863272586361329
-1.3839672616175007
-0.6782569053990264
-1.1181848850771827
-0.43428947518945094
-0.13056901511973962
-0.5651074507199995
-0.7854151522907182
0.7863624033694379
0.9341761706784298
0.2772048655033717
1.124394850869763
-2.5424810297041125
-1.7508746021920512
4.956488334896559
3.861046417187686
4.6120766746279855
5.977585857137301
0.033887198805863994
0.041274544238760896
0.00038916097293562046
-2.420586271338042
-2.764210118549267
-2.1236860268603586
-2.1709432451718405
-1.6289798438259806
-0.9034108799125751
-0.7994388095445947
-0.8607861700679228
-0.1580801036154202
-0.47420777300541356
-0.8100168163104202
-0.18639051759700492
0.3442149350504368
-0.5955390330529718
0.24609420377194446
-0.2379172209828565
-1.8904732145232077
-0.6375885203377818
-0.37332925025739205
-0.4959189942968905
0.7057087185485518
-0.1265471671154655
-0.03054141048395037
-2.3114733468945983
-2.3584141643670735
-0.6628823376040996
-0.47746799564883324
-1.5957125422060012
-2.341833981372122
-0.6090385524087603
-2.360401828702428
-0.580665582266591
1.2275291625854836
1.60821738605817
3.0978289976548217
2.9025551161374015
-1.9327385462301527
0.8795885708376582
-1.6043239431390468
-0.28889436176808797
-1.0801943423406135
-0.7735895348530051
0.9650845399878278
-0.6206183257875271
-0.07991470910050114
1.0535740230197639
-0.20244290180607039
-0.2629710723486006
1.6849833245880532
2.220237691945186
1.393513928624377
2.2392393112201185
1.4565077179324768
1.1348669761892065
2.152699297883124
2.381888098371987
1.48089425839502
1.9695547128973117
1.5511388272571296
0.45486877921878344
1.3896074410081845
1.0010786400014375
1.6592535427165738
2.219828652394468
0.8341669298216996
4.773447995590464
1.152392903649784
4.843223762174889
0.16371486670781377
1.5820890876824574
0.8235532868163323
0.8659083064235645
3.3382701558086714
3.153887725314033
2.294504442493391
4.049335046005536
5.388506157827081
6.511904433498621
3.0578372354867636
3.2573270537579044
2.4553300308622865
2.8744556443146387
2.601796480541489
2.836975042364771
2.1745946609927826
2.382714896715347
0.0025392847933181084
0.0810797443463695
-0.6402252074057784
-0.28655415745120455
-0.3862850278049438
-0.11115443740342132
-0.5045825987729384
0.2144010336516336
0.26915274203637657
0.9095959149078973
-0.38160325050574756
-0.20612705735271308
-0.3458909352879649
-0.1676960784864256
-0.5513983745299355
0.2143454659363519
-0.2584051225846722
-0.35218770396008847
-0.3576290880450811
0.8078173618926523
0.6868870045074189
2.5031470868031365
-0.08723343803081941
0.631164991628394
2.4304536223865476
5.650425702813338
0.9238345521610493
1.8444889459643827
4.6964811646471905
4.877896630523683
-0.1647125617774275
0.06378515928427916
1.1994306139634536
1.4626618338009836
-0.14735181931060826
0.1191761952979
-0.250698823329754
-0.761708553044788
-0.9113325507783183
0.595844677180624
1.6112483367017123
1.3467558210554045
0.9245728048449793
1.7294590371076644
4.123656482785065
-0.14847483390591754
2.8861657846430036
1.907428765556992
4.240540345137346
4.711096153243291
5.4772895720712995
3.082481254169702
-1.2263942297798225
0.24118872335918623
-1.0147004009640463
-0.1168283292406789
-1.27358431786746
2.94036327129584
0.3972046639490116
3.466995705468022
2.8449134503608833
3.1669818539353267
0.6771155398634674
2.100061285157706
1.576432289029952
2.0086162664296956
2.118412234087158
3.228877553336028
2.3054718876398743
1.5849268156804304
0.8554082296667963
2.9988990469204793
1.0712011183433112
5.40890365474451
0.44983026663473535
3.4163460361776474
3.2691208587996883
2.3799255851379026
2.125376921586886
2.2340386714285216
0.5576068831922705
-0.1261367446407266
-0.10192774183467171
-0.14709839021167043
0.465128058062248
0.8157305763663492
-0.021768274519556336
-0.13072690656227037
0.12301655245963332
-0.11116737891008366
-0.19881292526239702
-0.14247473980183156
1.6591420516085362
0.9304349516558441
3.272880958820759
4.352190577077552
0.07060612315147613
-0.15910783098104125
-0.05749379623459685
0.9308043887070856
1.1525445925798108
2.9948707090104802
2.8623880107335475
0.03789662082661266
-0.35698228399344906
-0.39038768057574313
0.7268893317398186
1.1120345985784599
0.12464253200734879
0.7096121057685055
4.691791883399207
6.424802724620703
6.560528015419962
1.0170313868118879
4.080554082132832
1.1474192097123477
-0.18309264438710182
-0.6299043855418336
4.823687627361876
2.6958289554229555
3.1098923647771595
3.4436543293975372
4.130266695742359
4.9219620810096325
4.838663403117822
1.5017391751506617
1.6791668029640348
3.808858889997439
0.34050779296120215
2.5270121286108065
2.770197094511953
1.4888597778233525
1.2490743205991206
1.656695349212116
1.6600948578890298
1.5617461793327934
3.3996858008400843
4.948499172061788
6.543253827667932
0.740303392213383
0.35243763232142583
0.9332395040312984
1.5850421669912165
0.7200554335733579
0.7721743863346155
0.3750308445652516
0.56264873179607
0.6433937181965829
1.0294717561806213
2.4437409346524857
1.1836291266159458
0.2815698678121376
0.5475834543814238
2.594857829853236
0.8282358720534031
2.6668270237382656
0.436021332233686
3.1064908849213175
4.33257558708954
7.615028829279003
6.952631967501977
6.171947958032392
0.5730187561062777
1.9338676538887318
-0.1951465104385162
-0.06234955352715911
-0.12605835137693466
-0.3198167667585783
-0.2608392874745297
-0.4552113142635702
-0.5607089023579377
1.6209651728761398
0.8416937405603055
1.087276029175642
1.3114742688888548
1.710314750609421
0.8774736250540025
0.5955958455784176
1.0898469844651386
0.1893507826287546
0.100442759944134
0.13799514322764211
-0.2201082100774397
0.7647007466506199
1.6574395759103422
0.7646084977522651
1.4331490872987747
1.8527267884729013
0.46838499440947495
0.9333723147979774
0.8323998124318696
1.505930038706351
0.3987934669021719
2.1269558004310367
1.3023103352577183
0.08389790244498216
0.14351480693383004
0.11049702195222513
-0.13146554354545684
0.139203756879346
1.004691946667836
-0.31836506321632274
0.27863617481097047
1.81266495414597
-0.07514700778175837
-0.09285818958795919
-0.3574999014072998
-0.13465037220865195
0.16147081791318582
2.6071875848283326
3.5371227724326144
-0.17608501365786763
-0.37198934918433496
-0.156639854307182
-1.1862541515907639
0.5214104170694122
2.0425232606647885
0.3938361712886609
-1.3130467062306939
0.3695132882556863
0.8786129776107154
0.23247340940452674
1.9111380539528513
0.5243771798431781
0.6040213931752424
2.3743421388959414
-1.913429801786662
1.7884617595063554
3.213719798733612
1.6965727748632542
1.524872971388151
0.9471438146888317
0.7958163070354033
3.875249126634042
3.2492101743713455
3.274431266139401
0.3511273886133356
2.1180946657950344
2.3444556519386652
-0.3153563643320942
-1.25607407766962
1.3844222022043853
0.4686827909481798
0.8901238835422511
0.7675526819740711
0.750845536230194
0.6234661759493595
0.22172583838523655
0.26465624857008424
2.1886657639041323
2.0341836612498474
2.064918846132537
2.724869215682131
3.3459366937593593
2.5745972756962674
1.108380570829587
0.3530388348718094
1.2103037870614557
0.08528023604047619
-0.21086859815178408
-1.9759552906340414
-1.8925539055882026
2.0303961849623184
2.177371604859548
1.932562548130244
2.7562420328943933
2.1171318930252845
0.4237758685499712
0.670653604964206
3.628288249973376
3.636446210434335
3.0330654864619735
2.970474538688057
2.0577242555508675
2.245261422441058
2.594742397357704
-2.3607692735478705
-1.066967629315997
-3.0134226475091426
-2.449476589995117
-1.1216601229429228
-3.7522992178742687
-3.4590822561396517
-5.212408018859743
-6.050412236970313
-4.947255728168103
-1.752520752260792
-2.5855582675573623
-2.7565614472699393
1.8568625792927018
2.1039840831071617
1.4873149362257838
2.6980662752841527
2.6573016451967217
3.620931480440631
4.004512535614503
2.9560731656409276
2.9913822715580918
4.379991853387603
3.9102541176049934
2.99801008990297
2.426127860704103
1.8250472281107948
2.177872509960076
1.959147232969296
1.0949742423577769
1.822093139545185
3.115669144413124
2.8390076078139286
2.8985708228359304
2.1390698043387233
1.9632607353979514
2.621550702119534
4.122749167133321
2.914108125099104
1.2286350496096916
2.8540616827134837
2.2206470487008483
-0.5030316960431581
-2.1142320339281415
-1.001090848977035
-1.3916183407295006
-0.8766942551494618
-1.9845301412333811
-0.7229908989430582
-0.5921539552457896
-1.7331230291323316
-1.3942549285925327
-1.5696063549308201
2.3330976189048136
-0.018881147871116905
1.9507267929518277
4.269536720034981
-0.14879033364041006
3.086605154576893
0.6596846773205448
1.9254722247149032
2.074764146922001
0.008415860022540078
9.44126287838472
4.552989319809438
-0.5870717675773256
0.09122683151284917
-0.8648631390269507
-1.4880048179537575
1.6299247032045563
0.8840188051504241
5.818535479732821
6.01422814841235
1.4892446640769217
3.241404167619547
3.401605839680189
-1.9847249031645315
-3.465789427232278
-1.0515058449241121
-0.6181407530875015
-2.0084866476976844
-4.784393103383754
0.183896311835697
-2.3542786500386463
-4.124772395303135
-3.860252050413914
-3.776665051816642
-0.620218124079473
0.1980229250020755
-0.04352264751555787
-4.9525788642020405
1.06652286417793
1.1970961855042643
2.723763996570126
2.5929514950129273
0.3274170394320593
-0.5833311323605166
1.073624911773709
2.766736017533969
1.6213409375148382
1.5312588204432718
1.744403564061216
1.9108468587556147
-0.4647907195555789
2.789059419341753
3.4870816283287835
3.113197646700923
3.5403634950867096
3.138059740361622
1.2858568385025493
0.3649150054274749
1.6908426949131035
0.9928664551604072
0.9368905945499105
0.937682668658017
1.2708172427191309
3.1729596138527913
-0.3298816903771624
-1.197664001910096
-0.2641277073919943
-1.6118280664614644
-0.821983290158522
-0.5831706519454408
-0.418048075834174
-1.1826499523948715
0.13332715406559842
-1.2514768034170614
-1.07988631855004
-1.2039484064811332
2.4682581428043466
2.2857011164788767
0.4324676110906387
0.5117990040070182
2.268210329574144
1.0803444477071609
0.6832646254210163
-0.008497387239423393
-0.8771275962501874
2.180072606915834
0.5755291293004066
0.6833511668303689
0.42518679836168444
0.10085016730351513
-0.43218688091437846
-0.05721803726252389
0.21801009516854608
1.6803072985724419
1.8410922594801744
2.385123163747209
1.4616432413026847
0.954497130321398
1.4681079890747932
1.9040019894181617
1.0303133671000968
0.3117821091703742
1.011415654170348
0.7489585371110579
2.6661460992462915
1.778735855115266
2.3799428601545105
2.426012080518091
2.058062187959012
0.11429987947100184
2.797924975514492
0.619894249457661
-0.006060205738789959
0.05114211987932011
-0.18210728022965011
0.007326027184833439
-0.060080219042147776
-0.44890491818417355
1.8446421715561558
-0.8821009029245811
-1.057272089318412
0.35594424425950266
-0.5114116620822582
-0.27805480775471725
-1.1462602443121424
-0.653726148291752
-0.6528766180760877
1.1090444064023042
-0.49706560029330304
-0.16554692820550573
0.9750768079043313
1.6300668077008948
1.1300353541846475
-0.4909392165102204
-0.14922463464180613
-0.27039202715857147
-0.11957251300659541
1.3098756151446458
1.1849189604839472
0.21650378464878955
-0.14837510442614193
-1.4001695568626178
-1.1494355849998867
-1.393409161139481
1.1489469647418555
1.1978723451471947
0.5947319523602492
2.013790995346548
0.6261760210130527
1.8331124120172295
1.0486378304706796
-0.05067556818963728
-0.10418803599706619
-0.013980470378803268
-0.5807285793697601
-0.49052101375149715
0.12960640195923473
0.055438789133211944
-0.5242812581670031
0.2832164418880073
-0.22940996634185865
-1.5040703274348572
-0.9622095518756048
-2.020615107243869
0.16572019757986717
0.3298189151769462
0.4471202219214875
0.7018137434588223
0.9609274556233592
1.2480960409618223
-0.5792713206353056
-1.4637826858960004
-1.129647328987431
-0.43364468479867946
1.2397204318621335
1.1839985031935134
0.5820648708832095
1.773852983336608
0.687456100659862
-0.020621283027669877
2.584348415880201
2.9807249381112464
0.7947800874799632
1.4998842902469034
-0.21622073332479125
-0.340561522960607
-0.27798498965243673
-0.7082049198224012
-1.1345842899985934
0.7633832553535984
0.12524811566390973
-0.07897796252045611
0.6621246261647348
0.09669686509480638
-0.03205211717535528
0.5130904575196463
-0.06683425420560551
-0.01693761631006127
0.19351934833545145
-0.06545035908747396
-0.07994730974279748
0.4866342064386688
-0.07107328920596166
1.2727260242308551
4.431118476427405
-0.17025817525820663
0.8743593797712822
-0.010917324073149201
-0.4235497294366611
0.533440187756072
-1.1212774604456457
-0.10826269313138537
-0.22036695466473308
-0.17766157970194651
0.6939442284248337
0.04588817645139959
0.4272206865323937
6.267533128608142
0.6404186129239818
1.695311920415381
4.098573921993242
0.9538291905958934
0.3476595187408662
-0.3675128833488028
-1.005113495928606
-0.027507038457650644
0.003923902267125464
0.0494499183492606
-0.5567197535057666
-1.6009961089724583
-2.355280227453612
-3.554477040393535
-3.671160546294886
1.0234524977933552
-0.9831597282955679
-0.11043370373512898
-0.15548492077918422
-0.10002705979533329
0.9209919422572646
-0.725816385823823
-1.974649058313524
-0.35986705100870897
-4.376449485265242
1.5163145039331787
-1.701846530473233
1.6472123487835346
-0.7770523780619162
1.0036474462800382
-2.199673012352127
-0.5417743670849984
-2.0746735090013173
-2.486613617155375
-1.9717185815551674
-2.5837526075347705
-1.5241602553526046
-2.981964982794188
-0.4270450553283276
3.8704322088093046
3.7582599298542765
-0.9118628597840238
-1.6404442915783712
-0.896962590408052
-0.5803212667677624
-0.7630502492680256
-2.243378918552426
-1.151480150067778
-0.253049985737745
-0.2071923026678968
0.9165523943282716
-0.521982462325671
-2.6223214230242027
-2.5552467481192385
-1.4024783194587207
-1.821929410360775
-1.0994822727234783
6.3090004669014785
4.337506540688052
5.708269941473381
9.558626721943641
11.407509764734522
9.322248737402736
0.9846042647240993
3.6070514937383544
-0.5097268254505659
-0.7250260276155419
-0.8742958204533774
-0.22096931901772976
0.4113503630691475
0.11188943677290145
-0.2742912469270255
1.5101981357030487