# vtk DataFile Version 1.0
Tissue data
ASCII

DATASET POLYDATA
POINTS 1714 float
0.425141 -0.0174152 0.926917
0.323902 0.238506 0.943022
0.415487 0.0118208 0.9350539999999999
0.115485 0.409568 0.939031
0.393906 -0.0737354 0.939761
0.0683317 0.425864 0.935563
0.331578 -0.195669 0.9530689999999999
0.101081 -0.405518 0.940734
0.326391 -0.106574 0.975491
0.352706 0.230841 0.933709
0.41457 0.135614 0.925774
0.329848 -0.163239 0.963031
0.235455 -0.266502 0.969517
0.222498 -0.29575 0.963756
0.423319 0.104843 0.926241
0.293297 -0.217897 0.964187
0.196119 -0.314624 0.96329
0.411348 0.0780682 0.9370729999999999
0.239717 0.322309 0.943894
0.30738 0.256938 0.942996
0.128501 -0.386501 0.943962
0.251109 0.287783 0.954304
0.385328 0.211615 0.924523
0.26137 -0.24539 0.967221
0.378775 -0.119553 0.94431
0.425292 0.164724 0.91381
0.153675 0.373847 0.951079
0.270823 0.308262 0.936277
0.347915 -0.139309 0.958685
0.192916 0.37621 0.93741
0.389946 -0.0982704 0.940157
0.399934 -0.0446273 0.938543
0.188893 -0.334215 0.956636
0.1722 -0.363946 0.94669
0.227327 0.356388 0.933878
0.298363 0.29624 0.9304979999999999
0.41784 0.0467016 0.935204
0.418218 0.194039 0.911561
0.316246 0.280355 0.930485
-0.253463 0.341324 0.929677
-0.285324 -0.29372 0.950161
-0.267086 -0.345063 0.941997
-0.411523 0.124742 0.911137
-0.353816 -0.267774 0.924299
-0.280463 0.336027 0.920365
-0.381829 0.198689 0.919181
-0.171522 0.358195 0.953176
-0.380194 -0.156956 0.925114
-0.368006 0.254956 0.914635
-0.27053 -0.314604 0.949954
-0.16757 -0.373579 0.955686
-0.226177 0.334118 0.9447139999999999
-0.201454 0.334985 0.95377
-0.130007 0.373581 0.9569179999999999
-0.411022 -0.139034 0.906235
-0.449836 -0.0153492 0.894021
-0.418928 0.0780647 0.911538
-0.426325 -0.10677 0.899541
-0.311319 -0.316021 0.932173
-0.202401 -0.338124 0.964302
-0.300853 0.304429 0.923492
-0.330143 -0.235386 0.945452
-0.352271 -0.28755 0.919524
-0.354395 -0.184563 0.939701
-0.229701 -0.347905 0.953883
-0.431662 0.0471159 0.906745
-0.438487 -0.0489626 0.898416
-0.440632 0.0210118 0.90189
-0.386104 0.231576 0.91126
-0.357655 -0.24736 0.926903
-0.423977 -0.0747337 0.904658
-0.346514 -0.213505 0.9397
-0.183584 -0.350031 0.963284
-0.327977 -0.186373 0.954627
-0.127985 -0.393375 0.951556
-0.341322 0.261045 0.9235949999999999
-0.340784 -0.312155 0.9184599999999999
-0.330826 0.287359 0.918996
-0.394294 0.159155 0.917802
-0.0925837 -0.414727 0.946219
0.367444 0.125243 0.950406
0.266999 -0.178696 0.98624
0.196921 0.294509 0.973563
0.181776 0.314991 0.9706009999999999
0.372437 0.105053 0.951564
0.287774 -0.0727569 0.99648
0.310267 0.1987 0.9598099999999999
0.0859686 0.336782 0.982242
0.0982517 -0.345451 0.965157
0.275939 -0.131087 0.9942719999999999
0.328169 0.176604 0.957713
0.345712 0.0155856 0.970878
0.311479 -0.0538917 0.987528
0.127725 0.314921 0.983834
0.351497 0.0561478 0.966915
0.184179 -0.259285 0.98535
0.350508 0.176049 0.9481809999999999
0.233241 -0.183105 0.996153
0.289141 -0.148913 0.985498
0.377198 0.156214 0.940206
0.35203 -0.0218431 0.967129
0.340875 -0.0622522 0.9716899999999999
0.199996 0.269653 0.980611
0.279373 -0.107873 0.996257
0.271457 0.193228 0.9764929999999999
0.144826 0.302204 0.984492
0.154795 -0.277578 0.983312
0.215244 -0.21213 0.992661
0.232048 0.252941 0.974764
0.209641 -0.241212 0.985206
0.267906 0.236737 0.965544
0.114213 0.328222 0.981514
0.130016 -0.289511 0.981761
0.289064 0.20559 0.966144
0.121903 -0.317952 0.972336
0.369708 0.0787993 0.956468
-0.217679 0.273939 0.9689369999999999
-0.178117 -0.300623 0.9799289999999999
-0.329674 -0.100235 0.963017
-0.309748 0.171419 0.956908
-0.360359 0.0985445 0.943045
-0.271586 -0.190133 0.976011
-0.274257 -0.23812 0.967791
-0.282818 0.246067 0.948499
-0.32327 0.112556 0.9622269999999999
-0.111865 -0.334275 0.976198
-0.293011 -0.161516 0.972274
-0.200791 -0.289363 0.9786779999999999
-0.248186 0.262853 0.958932
-0.392013 0.042739 0.929036
-0.379868 0.0692929 0.933666
-0.380712 0.014489 0.93656
-0.22787 -0.276054 0.9748
-0.16478 0.29176 0.9812109999999999
-0.322902 -0.143104 0.9626359999999999
-0.232996 -0.247792 0.979581
-0.366727 -0.063569 0.94304
-0.152635 -0.285969 0.988153
-0.143682 -0.311603 0.981277
-0.3644 -0.0927995 0.942594
-0.342077 -0.124317 0.954019
-0.18993 0.272652 0.979691
-0.288245 -0.183338 0.9711259999999999
-0.317045 0.220755 0.942101
-0.302683 -0.146796 0.970413
-0.322052 0.169637 0.952201
-0.133218 0.29755 0.98758
-0.272714 -0.205008 0.973705
-0.33156 0.19217 0.942887
-0.327183 0.142321 0.955638
-0.376184 -0.0400039 0.938897
-0.386809 -0.0124018 0.933676
0.121354 0.138517 1.0299099999999999
0.100863 -0.130591 1.02881
0.0686276 -0.125896 1.03532
0.13606 -0.106134 1.02631
0.0960468 0.157591 1.02971
0.13939 0.114514 1.0317
0.146848 -0.0467677 1.02914
0.185809 0.0766355 1.03326
0.0743554 0.16604 1.031
0.138842 -0.0752867 1.02803
0.164909 -0.00375684 1.03119
0.171802 0.11122 1.02859
0.167668 -0.0301009 1.02827
0.198008 0.0543728 1.03379
0.178246 0.0266429 1.03298
-0.147674 0.129772 1.03151
-0.194988 0.0916992 1.01923
-0.212524 0.0477258 1.0168
-0.154903 -0.137725 1.02352
-0.185161 -0.0924606 1.02345
-0.233447 0.0288021 1.00913
-0.224644 -0.00997955 1.01391
-0.199529 -0.0647971 1.02136
-0.156727 0.10492 1.0325
-0.157934 -0.101463 1.0285
-0.208989 -0.0396449 1.01941
-0.119622 0.136423 1.03766
-0.129777 -0.145771 1.0257
0.321806 -0.13482 0.973356
0.303765 -0.117614 0.985192
0.369927 -0.0534077 0.955569
0.186922 -0.290104 0.974286
0.229307 -0.249656 0.976979
0.074927 0.378042 0.96439
0.246289 -0.201291 0.986712
0.214329 0.308967 0.961467
0.128121 -0.357411 0.955689
0.28295 0.268689 0.948261
0.390712 0.0970355 0.944477
0.394336 0.180522 0.927412
0.11585 0.362253 0.966176
0.362775 0.19633 0.938596
0.36873 -0.0863683 0.9538449999999999
0.375872 -0.0317806 0.953362
0.299897 -0.180593 0.972819
0.0965656 -0.375984 0.953226
0.387952 -0.0111028 0.947908
0.208451 0.335642 0.95194
0.312719 -0.0880106 0.984413
0.144806 0.334742 0.972861
0.403473 0.153971 0.92835
0.366164 0.00351608 0.960289
0.381104 0.028665 0.953504
0.252132 0.264718 0.962939
0.348354 -0.107873 0.963402
0.268342 -0.21013 0.9760759999999999
0.33163 0.208109 0.94887
0.212433 -0.268533 0.975945
0.395109 0.123038 0.93792
0.161683 -0.30724 0.971481
0.177156 0.3457 0.958966
0.30004 0.232403 0.954432
0.385526 0.0590963 0.951138
0.154917 -0.33465 0.961341
0.237423 -0.227494 0.981147
0.224202 0.284695 0.967005
-0.255226 -0.289491 0.962557
-0.307898 0.269586 0.932151
-0.347703 0.235259 0.9274479999999999
-0.230044 -0.297405 0.968689
-0.340791 0.161565 0.945353
-0.393435 -0.113461 0.921044
-0.193891 0.296123 0.971106
-0.350664 0.208678 0.931593
-0.0944102 -0.373534 0.963157
-0.316092 -0.269858 0.9425749999999999
-0.258692 0.296713 0.943534
-0.392886 0.100808 0.923758
-0.179238 -0.32314 0.97289
-0.404818 -0.054411 0.92024
-0.417095 -0.00334007 0.9159849999999999
-0.263264 -0.271374 0.964232
-0.412865 0.0249195 0.918181
-0.397738 -0.08397 0.921658
-0.404602 -0.0318892 0.922772
-0.306191 -0.222754 0.958753
-0.33809 -0.15844 0.952777
-0.129609 -0.366669 0.962732
-0.212549 0.309252 0.959832
-0.139666 0.329589 0.974244
-0.352729 0.132678 0.944159
-0.151864 -0.343657 0.969454
-0.316995 0.244533 0.936343
-0.371175 -0.122855 0.935142
-0.312604 -0.16859 0.9638289999999999
-0.354056 -0.141428 0.944545
-0.221173 -0.320948 0.964425
-0.30723 -0.19871 0.962096
-0.180405 0.322424 0.965869
-0.38291 0.131657 0.926997
-0.404706 0.056947 0.920998
-0.362218 0.17076 0.933015
0.43316 -0.398469 0.829496
0.439918 -0.349413 0.844654
0.63539 0.0680473 0.7654529999999999
0.287829 -0.51951 0.84259
0.308712 0.528642 0.829303
0.61217 0.138472 0.774891
0.265299 -0.568187 0.817004
0.128972 -0.635271 0.796576
0.429592 0.464329 0.808878
0.349049 0.494338 0.83193
0.134497 0.587024 0.834584
0.315581 -0.495442 0.846703
0.587998 0.286215 0.757833
0.107047 0.597682 0.8289839999999999
0.454174 0.447337 0.802381
0.57887 0.253932 0.777047
0.594304 0.22336 0.772436
0.457634 -0.32693 0.841085
0.604542 -0.0234749 0.800586
0.125569 -0.671144 0.772431
0.200069 -0.617008 0.80188
0.401106 0.479791 0.816491
0.583687 -0.111938 0.805522
0.143959 -0.654237 0.782466
0.611812 -0.0484533 0.791762
0.603917 0.191564 0.771227
0.0915756 0.622613 0.8127679999999999
0.371446 0.481338 0.82905
0.194576 0.576025 0.834099
0.586482 -0.155689 0.798103
0.0632843 0.642856 0.800094
0.601447 -0.126814 0.7884369999999999
0.251465 0.578124 0.819735
0.548038 -0.210426 0.81852
0.489555 0.396102 0.799406
0.511379 -0.244329 0.833775
0.234427 -0.566878 0.827723
0.515564 0.363726 0.793818
0.270716 0.556884 0.8258179999999999
0.269575 -0.542981 0.832931
0.485187 -0.311585 0.828109
0.559305 -0.172172 0.817455
0.626916 0.0156467 0.779321
0.153103 -0.632489 0.796125
0.619669 0.106477 0.774019
0.60311 -0.085566 0.793834
0.34675 -0.478426 0.8411649999999999
0.577566 0.319921 0.757758
0.163736 -0.610256 0.8106949999999999
0.38112 -0.44526 0.83794
0.292849 0.547196 0.824244
0.400346 -0.396039 0.8512419999999999
0.16751 0.579795 0.836375
0.400121 -0.41297 0.843378
0.326171 0.506432 0.834751
0.45215 -0.368991 0.82887
0.512357 -0.27841 0.821637
0.226173 0.572112 0.829403
0.603986 0.160398 0.778075
0.542369 0.32669 0.786413
0.212487 -0.584715 0.821542
0.47841 0.430826 0.793952
-0.642727 0.0236183 0.723402
-0.349123 0.489363 0.821272
-0.525777 -0.382588 0.7399249999999999
-0.229859 -0.619882 0.810587
-0.528394 -0.40569 0.7204119999999999
-0.162091 -0.656802 0.7970119999999999
-0.240835 0.543975 0.827743
-0.577506 0.244506 0.771292
-0.267398 0.529206 0.829697
-0.300064 -0.579322 0.811282
-0.538607 -0.351401 0.741865
-0.631211 0.0515253 0.73899
-0.622455 0.00353766 0.748802
-0.628155 0.103833 0.739344
-0.431745 0.426569 0.808877
-0.543094 0.329342 0.773031
-0.454252 -0.47519 0.761551
-0.623887 -0.0357638 0.740695
-0.191253 -0.64443 0.801938
-0.564116 -0.23515 0.753107
-0.317897 0.515763 0.819466
-0.487117 -0.436318 0.748991
-0.614272 0.145354 0.753513
-0.523904 -0.325662 0.770061
-0.343853 0.516144 0.808909
-0.632745 -0.16307 0.696028
-0.164311 0.603918 0.809524
[...]
CELL_DATA 3350
SCALARS gaussian_curvature float 1
LOOKUP_TABLE default
0.3227471994574675
0.8539290056161459
-0.4487409577757378
-0.32152555410954264
-0.1399370767340457
-0.543903479226529
0.451120325956833
2.9013509114745353
2.630924438461304
-0.4971892490071962
-0.08169307995252577
-0.00989973488672009
0.0625540377811686
-0.19742834087198616
-0.5820636594520556
-0.7588850771828795
-0.11909457780744159
2.9752432918173746
0.9486638848855896
-0.18189751686885164
0.34957933118715595
0.4717528193878165
0.32307763003639167
-0.018085833394681616
1.088442621502118
0.7294894631043184
0.5693205926639721
0.38497299994493434
0.765298892161884
1.2737508679978555
0.5137917170831842
1.6285851696912204
1.7706801184721137
1.2448523590869147
-0.3513388807260933
-0.09392793879064326
-0.6109299654536089
0.2771652384395668
0.747344382376675
-0.3978678452594979
-0.3323068018261892
-0.6732970220339256
-0.03242407847013207
-0.10693115388285931
-0.11403906416981613
-0.3772422568842594
2.7233003050732236
5.75611080084321
5.77459428711229
-0.37687280845364357
-1.5291093294931608
-0.6140918463403249
0.6213789206380189
-0.4166439589034414
2.010577409363165
0.2618537607265171
1.9426569587778184
-0.9390647605915801
-0.9540915594552272
1.682537032068868
-1.0494996919749382
-0.8885550566067846
0.8546974262551553
-0.5357864101135978
3.6952296965840787
-0.2649378898451102
2.3101361034084213
4.521580041200963
2.338428139655015
5.643401475183742
1.5619243580206743
5.0491660715854945
5.047557582429838
3.758676476086121
-1.5268927797006167
-1.2619748104212132
-0.9256119686485644
-0.7442906743469729
-1.5258269646621363
-1.3088953972576984
-1.2638676832952385
-1.1405168372372085
-0.9216084376315672
-0.3340811264247995
-0.6454869749248089
0.1805999715608686
-0.058352104271252245
-0.3359347403657637
-0.9712991982159973
-0.8371284590107744
0.5486619150533598
0.3598621928379405
-0.19572835663981675
0.9860936908759236
0.6161781334424681
0.35780209577466315
-0.2694736571017331
1.5099724038134772
1.7106837739954759
-1.1479507618895448
1.0668712187217428
7.001727701952176
3.2530370513038895
-0.8817033487177673
-0.8244729785540116
-0.9109942118754208
-0.24854268474037067
-0.8066334158111277
1.6622746857014183
1.1153632454151983
1.2199266130178894
0.8480008125283035
0.4454526107622807
0.27046697096564665
2.7853903663659763
1.7398101146751594
2.399636637444303
2.8983054488489
1.3036379224497363
2.7160268642323917
0.9476677208470835
1.5960899039647394
0.6544027980191687
0.4413171622884516
0.33676029374100713
0.1472977277057015
0.7402744180935257
0.46296509415254405
0.5216060395848947
1.1552665968158204
0.7819587961751076
0.07395299657165802
-0.13145231961931209
0.18213139576173404
-0.10695481190755707
0.00120781772330781
-0.2619011502669843
0.46979371410407333
0.7220361151023293
0.09850388036213667
-0.14052394212742209
-0.038058223739050975
-0.10545109583846476
-0.2538326195086293
-0.06199249928099684
-0.020354838302776786
0.5416442181253902
-0.19810559137508474
-0.08698904589140913
0.9131207310318894
0.8601487648466598
0.9793828767549031
0.22560124626665415
-0.1270658988786193
-0.2788232869108568
-0.2041537538850332
0.5557802898735852
2.2006883601447487
1.755366284737089
4.207685732861946
2.246068837206111
4.259973474865976
3.0844310629773677
2.4422234739646917
0.6004084550554882
4.455151418345524
1.994865711285092
4.094691307788666
6.0972607857438135
5.6845129331829245
3.9154362896674466
2.8664114197575166
1.1342476013826146
1.6687480714851464
1.810052048337147
1.3902568683335714
1.3894658964046787
1.0564086026623132
0.4898392152472066
0.43096056495227514
1.0963243414962218
0.243060617496549
-0.420439536245184
0.8874956800308385
1.0711164578887797
1.6279502338719234
0.8251019119509089
1.614881796310787
0.9638607329503397
0.8644123278286729
3.8993552826248363
4.211944437347762
1.4059616323428827
1.681436540500677
0.7393916524821267
0.8474898882982633
0.33360759761143355
0.43159076529583307
1.2221618703546744
1.611864051713152
0.4452876991742195
-0.03109611026894607
0.1718898887817778
0.841174575246846
0.962168445838171
0.9544750096824868
2.8575468088967284
4.55728308567302
1.0932443061988861
0.20806823751517126
0.48847343004236293
-0.0029752818804856113
1.5308036047314286
1.9599684684923266
0.8023371595927719
1.951139356983038
1.4960486933515038
1.152516580369964
0.23164031178468814
-0.08263319415381488
0.12423513887576104
0.23453823356722625
-0.2671965232198646
0.020281777455946115
1.5235547948514916
0.3200915300253882
2.131642127062466
1.257669154889089
0.783605603108938
0.10967876875800814
2.0115090118256784
1.5530969012084948
1.3171765486642488
1.2500942336013714
1.361398237328871
0.6171103175858059
0.8507266299065712
0.07083256725152087
-0.5846609680148342
0.6978906783042786
0.1812159720039543
4.3839258677670605
1.4778352629040854
0.4746916439857414
1.0305315905496097
0.6776897859426622
0.4447636778919448
1.1051378617790084
1.2015809229817025
0.47978584448070993
1.5196396896939914
-0.026728974526447652
0.3895540171782198
0.1756807599670066
0.4009330201511121
-0.23225078460986393
-0.5227043740466124
0.10309498544429369
-0.23166943127755224
0.10325148511193465
0.30488299781851974
-0.08440349374618533
-0.30574068828883527
-0.8648047662900413
2.0608397906119604
1.7124216066314282
-0.3119513866601784
0.9841952203212523
0.16152700688129717
0.494506755830951
-0.48721386375513454
0.5068992575941148
-0.6196874320504346
-1.5433143729199998
-2.123850410112581
-2.48841327298094
3.133517977394121
4.037206625405612
4.7024194705199305
2.237501752426019
3.6241266829697785
1.3258227446742477
2.95044523296687
1.35176216505097
0.3022176160261711
-0.9552022401809235
-0.6664920298340168
-0.4299925523607977
-0.6577448060740061
-0.28013154714108346
-0.13288361654949588
-0.05685957044944756
-0.4681125620119672
-0.4104872131211752
-0.14109693565358936
-0.27371178257859197
0.8611732754893133
1.4556392420213804
0.9425479232634434
1.0666904542148337
0.2867894017572069
0.5337586260228082
-0.12477252343706621
0.03372924840302118
-0.20559346649119564
-0.7050772861997145
-0.09330749205076982
-0.48778084239483355
0.22868928454345044
0.26379677286733505
-0.092182727627373
-0.19780495694509723
0.4519199697270573
0.5513743173941031
-0.03723680382668246
0.8119453099725898
-1.933143389000484
-1.2319250073480337
4.7657403513523455
3.385310830506917
4.307855282715371
5.586508825143482
0.12236203433396386
-0.0483848360742916
0.14386324738107947
-1.8083773247822723
-2.225137527099117
-1.8570882330354335
-1.9791992511928216
-1.1071589431298223
-0.543406210322263
-0.44926387493483305
-0.5008407826445869
-0.1392401952201092
-0.4430329093658627
-0.7085824476495955
-0.04302779743561941
0.4142496997993319
-0.5550976645603978
0.42724142072709415
-0.1053785381281518
-1.4633133855288682
-0.7460763647960768
-0.5330711784029564
-0.6333121532447293
0.43912808649245083
-0.08047571242695314
-0.2233011337717724
-1.3124687980667318
-1.3425528481959592
0.5173724731293404
0.7122521469295253
-0.6282145813587109
-1.3994892036424358
-0.023772073283944595
-1.604812760390319
-0.19901157990260016
2.132661895066091
2.292918705263862
3.6184774834900635
3.6531003470924777
-1.0669202593315994
1.3607030103935074
-0.8423968274710842
0.06790555438543144
-0.43392457065335527
-0.28349920946416696
1.3788707980359662
-0.46833941574289983
0.17103884848257667
1.0965831504169707
-0.11119983964063376
0.018559051104619924
1.6877116184190841
2.1235086407599155
1.3999300941494464
2.189701404749874
1.3203410105685598
1.0230724063799372
1.8953635846140275
2.7538294397917573
1.49661983778872
1.664664206938358
0.84394876082858
0.27902876602893256
1.6460104774827686
1.189748361401402
1.6313440936441777
2.3045813857714537
0.5953708616572515
5.531283806875
0.9585851116059668
5.565628676742565
-0.14506789788059773
1.5138497611640318
0.90852255396048
1.075135391766092
4.462583270759179
4.25957474153712
2.853756810793674
5.178133299043086
5.999810848732641
7.804526109869946
4.081328989316174
4.059071323574754
2.8640829719560275
3.3656256114158287
3.071117402136834
3.296738807769728
2.3750978315495965
2.3818152005887456
-0.02875653373227155
-0.0861768941093396
-0.5829194779155407
-0.3301119155188482
-0.6355349619625458
-0.32530703918878534
-0.4817931215804553
-0.21393026203497822
-0.05179207076535239
0.2734911491571927
-0.2264023184946668
-0.11704389132795966
-0.2085922694685879
-0.06514313423860253
-0.36828342163841893
0.4412703256306387
-0.3525748257495789
-0.7622783575344859
-0.35156485339588034
0.5577002417478153
0.589972146456065
2.1539499602071825
-0.2136982944229989
0.4406857625092254
2.2082868724157736
6.772786344065532
0.9002256524989888
2.132261481758568
5.249714855579667
5.280665506155511
-0.15309903148065718
0.03971573603856737
1.4847935168687856
1.25818980538871
0.008928458481822346
0.12086487982932534
-0.29828127528627163
-0.4232218816977569
-0.40478797367610075
0.5500101105523634
1.638517945583094
0.9152111775334635
0.4826419892958647
1.2141589696164454
4.108314366028262
-0.4968892085071717
2.7225494078271897
1.5672602419821622
4.418505839620273
4.375257356027864
5.179059327094398
2.7758507563118564
-1.4006179670865266
0.26797029477726686
-0.9888597361678049
0.15194749033666594
-1.2157910362553976
3.0420502915384535
0.04464393736894888
3.8596492523212773
2.7539986196006034
3.0734710361519317
1.2907396765290464
2.222501185079416
1.8399471497123825
1.6670797074376629
1.725470997629034
3.503002452879304
1.9070904454209525
1.9616581258405859
1.067797040716774
1.9449908688475104
1.6761325976990102
3.202563172895681
1.200264785294563
2.5052531447242856
3.659617917864348
2.746799532572275
1.6524596502031081
2.042945698473038
0.2459319417204987
-0.17445873123489314
-0.10393724736624278
-0.16758522520976615
0.33244005071058463
0.9951477804288736
-0.019381706561179293
-0.41016208484569705
0.09027341037596162
-0.08792110564990616
-0.15812981906740908
-0.06629086152421003
1.4310393039293003
0.6450734008497573
3.259027663357225
4.707701296155057
0.05008083511458471
-0.16179943779698594
-0.10835303783755859
0.13048626802691843
0.6029040259705393
2.9250347417758524
2.3670838414297526
0.012987021136155324
-0.3915956926324332
-0.47833748801459663
0.34155099064067374
1.3368987569849138
0.1092459697221004
0.8318057457270303
4.651538047765347
6.099239126912202
6.10150420759671
1.2587369393341694
3.6738048963698713
1.3119464243077958
0.3445795464189497
-0.3168336996082093
4.515394524043645
2.686195317482069
3.497123239151799
3.8357115677928144
3.2955035576171947
4.151607938172417
4.5025614749988385
1.4580851229799907
2.3371388780111886
4.1307078940205155
0.40969761437764385
2.510016089769697
2.7678841984627867
0.6817542919953343
0.6538015418737909
1.163186320797518
1.3931016793690645
1.8526731356049824
3.7543780040467185
5.949238614312105
7.593075374060752
0.13720098606262968
-0.08741404420250136
0.4035165208598305
0.6910716711388006
0.030061054499270823
0.5799431247724449
0.14519415743218345
0.7119960340591494
0.7860957921987911
0.9464535372598306
2.756873936897412
1.3237319892042463
0.0947532780383642
0.3893207220054228
3.0377569274049376
0.7855824035429111
3.1111345834303297
0.7720292779585756
3.1727651868448925
2.1498302162459013
4.05744072223943
3.5212111423561785
2.8758632690351544
0.4932511679485006
0.9803051525207542
-0.11406027900224261
-0.02628237428811417
-0.09830163126263511
-0.31971282688625435
-0.22158465524268622
-0.4246345236624954
-0.6103309797494869
1.414832879203964
0.43487624701820615
0.7592790359817905
0.8950973310818737
1.4133211498650642
0.30697316170883643
0.08610284727674361
1.0632848387618208
0.06726935006964196
0.07642730009726298
0.1024891076962704
-0.18091568559257973
0.6420170049063775
1.216531786228488
0.8466494631325907
1.2853459493546175
1.7823896409911302
0.3394398055500609
0.8257703277515399
0.9054997429399562
1.6261162745081654
0.014609273781029608
1.9694473050855457
1.3556489620111245
-0.16715346805146883
0.08564652795954525
0.12475410055913964
-0.14312590155055105
0.2807865310754615
0.9863464849963768
-0.2071361856054785
0.3890317800169403
1.5332882201598825
-0.007498349979813412
-0.04134557534389434
-0.2597776803059989
-0.046860622536729415
0.2029026704464197
2.248679275043648
3.2873798649953834
-0.16024041966233976
-0.43824099331233085
-0.25083654797867794
-1.334811045586021
0.3236366844562869
2.1524127090139453
0.5920931506152054
-1.3707428356522444
0.12714755161045738
1.0766740056593522
0.35073804420604787
2.104869423154416
1.040222213546035
0.6341035162666098
2.7015081918758432
-1.1476314197044317
1.0366486925748086
2.703013489758395
1.5395949415597578
1.7318328395619274
1.0986022972915264
0.9496074790865254
3.7045479064694513
2.878986033877955
3.153888122584153
0.3579431542057535
2.1807684092695303
2.1070139045519767
-0.3332965617755854
-1.2463893029393063
1.5047247322732067
0.4647871399062886
0.8088553653941634
0.8896089346934898
0.03245964234457388
0.3594333472099629
-0.16704742801640773
-0.14109142779439732
2.1084252540119666
1.0614756984332754
1.2732764367299205
1.5401412086278676
1.6158956206101927
0.7504754888633356
0.10050948265944448
0.017155556888709594
0.749339541161495
-0.056842471155856014
-0.25191529100728277
-1.213600751181875
-1.296960424000872
1.9515799115564338
2.1927233927879044
1.8353259080482012
2.2062022122544693
1.2057643941873768
0.4374086845833162
0.6269687657112508
1.7195633700003343
0.8397834556605829
0.7580275440464752
1.2367356631353121
1.0148177097376314
1.0018276908945676
1.225268757101199
-1.7260404799149855
-0.8141249092491952
-2.452565227668846
-1.6328336533095231
-0.9271892335118834
-2.808258128855762
-2.6702673695648227
-4.745914883965369
-5.942407604793627
-4.315659818185459
-1.5193227157602416
-2.199485649131528
-1.9703438986376378
2.346919568006576
2.5648897269416606
1.6719375773960774
3.1580281134255817
2.9420815754266463
4.210201952521066
4.756659361313859
3.5722716601918236
3.5750515829198513
3.7429633833152014
3.375536839412496
2.3203705845894427
1.9711754960428327
1.5913703974959534
1.7856921220421909
1.5600532572027337
0.9610156183475792
1.5690784343566488
2.722718948079881
3.0017387759011473
3.196631848352133
2.414614650413701
2.071516254671445
2.9280914814081602
4.64866192530861
3.078314865187405
0.9461635850852419
3.2464666330928433
2.0465559347083575
-1.0534440711004427
-3.478189049170565
-2.4510094105921723
-1.3463166193119132
-0.8062672868437857
-1.960918509249891
-0.9108273656858217
-0.4803150324391506
-1.6695791821600814
-2.149295847735997
-2.1596057257889605
2.557009649796247
0.6315096168110879
1.0566726614666209
3.943616201099637
0.17698613569519453
1.5939838458927778
0.5319263995201692
1.5237610650622195
2.075131298018552
0.23400126559926904
5.066924894477297
2.116994365338633
-0.4268087646164685
0.004093367733381054
-0.7599147613319307
-0.9637196644158315
0.3404761074740701
-0.11840964851256877
2.8341716059816218
3.046266188022925
0.44279462206792225
3.537196141155476
3.9231555001546456
-1.3416273069916023
-3.087474321671907
-0.6168028849474796
-0.3969361285808447
-1.9525900821524362
-4.725134938862645
0.17539922866018218
-2.9456629075885585
-4.387683593033465
-5.138858837559112
-4.6966754804279365
-1.107746078202502
0.2612252333075047
0.11216325868556538
-5.20693565585082
0.7042190962827413
0.8559621831588491
2.619617404952932
2.284239251362054
0.27877810886640325
-0.21104199824454467
0.6769837696587975
2.5817484205154395
1.6201882845953561
1.659791428755713
1.487200338063199
1.6283097671257585
-0.274641964889968
2.863703500835517
4.087139824271206
3.8483581768710247
4.388443774615155
3.5139484693561425
1.259030132041315
0.5547724304113972
1.432837758849068
0.7598405084750255
0.5512794233613552
0.676764375755693
1.0889187659295132
3.2434471646384315
-0.25856665139328733
-2.0861841378650072
-0.6259672747689687
-2.820676539741056
-1.45823629526418
-0.7340537714410946
-0.9298061104383277
-2.124447020685594
-0.2783090322535599
-0.652730399330937
-0.6348860425092215
-0.7466177151792004
2.790958440456307
2.2818229009982405
-0.304370194774754
0.6315624338815131
2.5453506100144763
1.119062313805565
0.6607454465925304
0.22511968370635727
-0.3019435273420863
2.608488495335556
0.6297826094594957
0.9805786674644816
0.4565674421802334
0.337782864688983
-0.28965066945751694
0.19583823410986761
0.42754355539189165
2.1352183516352854
1.5211641799207112
2.0991852006528635
2.1131514618821927
1.7363305774354811
1.432054152348088
1.9655864037774873
1.251126335895346
0.6190932468336283
1.3346678453251606
1.2231359382028768
2.3981173399725693
2.0397207491065377
1.8359615884295652
2.9927948300852694
2.317849858211445
0.003399668310281323
2.277345847830369
1.1476278549851933
-0.08639506432265912
0.11020109948119886
0.16702904801009738
0.26101912556262974
0.7902080930015921
-0.8662023558064766
1.7898338796042828
-1.0494759182887328
-0.8916546749275929
0.9398010783209639
0.0482875142699013
0.4184261314958662
-0.42090273374961906
-0.24248611748825433
-0.29467081629383174
1.560881801707731
-0.3245903820826683
0.030528631085584845
1.4605865159765221
2.0323422705867027
1.611262609492814
0.250354844695593
0.09564479963781145
0.38355578019608316
0.7166824415152294
2.1863626478599114
2.475308568446393
1.2633147407386387
0.04346010083223403
-0.8824485119525198
-0.6542359808586046
-1.159151818504929
1.3825808986996122
1.4142240276447757
0.7230491881730164
2.7897615314152557
0.7158099798424014
2.5149377825842563
1.132161070483161
-0.021411981921874268
0.0958431931553244
0.10518550892645252
-0.10163566586785788
-0.09229335009672976
0.13057196007055397
0.041888085159831334
0.230752513294835
0.8663262665228879
0.027998450863139554
-0.6317787432280759
-0.5464498681514227
-1.3858482828009515
0.23313060317848572
0.9614948804282206
1.3143941991540546
1.1475643833176608
1.1035033087030168
1.560385835239138
0.35669432872581086
-0.7763851156372583
-0.6315322573623402
-0.04442748808454236
2.477528622449874
1.913758953032393
0.12323846053692797
0.008840165487831633
0.10296949703696416
0.4178964668809226
0.023142513100059978
0.20411979706892017
-0.2546410608161178
-0.2200697497039257
-0.2999788356729981
-0.31828154260284464
-0.26207282533663223
-0.3945533802010487
-0.6544295855692263
0.9137858862638049
0.17471493553215545
0.038067813766815464
0.7410585795238822
0.20947352224124952
0.054857954082055224
0.6464999134267593
0.07225163981738254
0.18315157979687463
0.3371636025359813
0.02349309455926265
-0.01917012176748136
0.7610474335997355
0.125774551198703
0.6289835700979066
2.3683639778917964
-0.23318372488012762
0.08800029195746631
-0.13889412061953538
-0.2978128875313617
0.873344895060529
-0.42414153387690656
0.1134933585772594
-0.23568684907487294
-0.08175390159775897
0.5472062715102531
0.1735416061314351
0.5556352601321226
3.1452115378323224
0.017140898215650513
0.6712291091971164
2.0361834039775086
0.14546775088318098
-0.17488807039121113
-0.5646253366896106
-0.6700514707040077
-0.10326507946875763
-0.3181947667287525
-0.07720943753242857
-0.3975652588068207
-1.6642499773957546
-1.5435034339786178
-3.081540580353864
-2.85536790292233
0.6502247608994159
-0.0739665126866306
0.19568109989963264
-0.10098108465239607
0.09576905725736187
0.6318280994051841
-1.472925890341596
-2.4411674748028678
-0.07801856346781355
-2.4838335021004405
0.3111895556172405
-1.047472242951473
0.43720238204552486
-1.5729401927924855
0.3352807711885315
-1.648105696773056
-1.0912316755803975
-1.04767291757583
-1.3239210132154324
-1.1977436553427419
-1.8848596104405488
-1.4638814820880797
-1.609887643822534
-1.1159394282048676
0.268128923012404
-0.14421940133572386
-0.026339358336000623
-0.40914766171719735
-0.027052114852986767
0.07950809288860733
0.15452215916543469
-1.5441497193245397
-0.20147923526510103
0.6966869246467168
1.0276191799150642
-0.4809913499547003
-1.0667571254851032
-1.7089373665024732
-0.9031557020099832
0.17245425192434033
-0.03558715776134398
-0.7914526233487369
1.4834590490675423
1.1069885826081203
0.7944573451545045
2.4388821307342097
2.4822577236851116
1.903241932548776
-0.43898159326195374
0.17520834837214372
0.08419249756710953
0.19729909631075843
0.6676563975321999
0.17737078157335098
1.189778683410737