# vtk DataFile Version 1.0
Tissue data
ASCII

DATASET POLYDATA
POINTS 1714 float
0.437731 -0.0182989 0.929097
0.333309 0.252579 0.9474319999999999
0.427938 0.0125365 0.938385
0.117457 0.438554 0.940461
0.405118 -0.0776548 0.944098
0.068201 0.457034 0.9358299999999999
0.341141 -0.207132 0.959807
0.101909 -0.43487 0.945001
0.335971 -0.112884 0.9866699999999999
0.363335 0.244013 0.936352
0.427398 0.142938 0.927402
0.339565 -0.172906 0.971587
0.241916 -0.284373 0.9804889999999999
0.22862 -0.315582 0.973192
0.436463 0.110484 0.927972
0.301689 -0.231446 0.973418
0.201284 -0.336345 0.972999
0.424001 0.0824104 0.940479
0.246049 0.342809 0.948213
0.316115 0.27224 0.947489
0.130498 -0.413947 0.949348
0.257807 0.306398 0.961037
0.397323 0.223303 0.925736
0.268617 -0.261268 0.977448
0.389735 -0.126051 0.949236
0.438725 0.173402 0.913643
0.157114 0.400444 0.955722
0.278175 0.326947 0.939402
0.358079 -0.147292 0.966297
0.197845 0.400899 0.9393779999999999
0.401125 -0.103554 0.944477
0.411327 -0.0469602 0.942697
0.193681 -0.35721 0.964672
0.176277 -0.388799 0.952383
0.233381 0.37881 0.9357489999999999
0.306805 0.313605 0.932617
0.430641 0.0493167 0.938379
0.431533 0.204306 0.910974
0.325454 0.296585 0.932572
-0.26372 0.363916 0.930793
-0.298136 -0.313936 0.954607
-0.27939 -0.368763 0.943792
-0.426635 0.132035 0.910414
-0.368232 -0.284171 0.9230039999999999
-0.291601 0.357363 0.919763
-0.396672 0.210561 0.919464
-0.179252 0.385429 0.958867
-0.394109 -0.166288 0.925929
-0.382641 0.270306 0.913511
-0.282909 -0.336593 0.954111
-0.175888 -0.402303 0.96162
-0.235816 0.357777 0.948969
-0.210396 0.359937 0.960106
-0.136022 0.403462 0.963185
-0.425153 -0.14679 0.903505
-0.465397 -0.0161256 0.8896499999999999
-0.434168 0.0827102 0.910851
-0.440616 -0.112564 0.895813
-0.324846 -0.336427 0.932117
-0.212467 -0.364082 0.972106
-0.312798 0.32372 0.9240079999999999
-0.344123 -0.250813 0.949129
-0.366601 -0.305037 0.9171
-0.368418 -0.196149 0.9429879999999999
-0.240801 -0.37325 0.958581
-0.447185 0.0499055 0.904956
-0.453419 -0.0516127 0.894774
-0.456288 0.0222771 0.899062
-0.401302 0.245217 0.909702
-0.372002 -0.262526 0.92645
-0.438384 -0.0788392 0.902189
-0.360597 -0.227036 0.942545
-0.192788 -0.377193 0.971054
-0.34167 -0.198709 0.961411
-0.134361 -0.424303 0.95688
-0.354896 0.277263 0.924315
-0.35491 -0.331265 0.915585
-0.343911 0.305141 0.918655
-0.409167 0.168601 0.918153
-0.0972119 -0.447575 0.950254
0.378136 0.132543 0.956249
0.274697 -0.19058 1.00099
0.201932 0.315965 0.984579
0.186253 0.338205 0.980622
0.383316 0.111209 0.957592
0.296254 -0.0772007 1.01353
0.318931 0.211029 0.96772
0.08616 0.365681 0.9958279999999999
0.0987298 -0.372211 0.977339
0.284238 -0.139614 1.01079
0.337484 0.187348 0.965083
0.355415 0.0168082 0.981081
0.320548 -0.0569923 1.00179
0.129976 0.340768 0.997877
0.361492 0.0597435 0.976039
0.188774 -0.278299 1.00191
0.360714 0.186371 0.953592
0.23979 -0.195966 1.01455
0.297717 -0.158483 0.999491
0.388464 0.16507 0.9441499999999999
0.361935 -0.0228626 0.976582
0.350577 -0.065755 0.982094
0.205022 0.289569 0.993846
0.287707 -0.114761 1.01334
0.278652 0.206212 0.988662
0.147703 0.326663 0.99879
0.158057 -0.298708 1.00033
0.221056 -0.22732 1.01062
0.238058 0.270607 0.98643
0.215205 -0.258347 1.00105
0.275064 0.252166 0.97494
0.115823 0.355439 0.994717
0.132007 -0.312236 0.999204
0.296889 0.218775 0.975639
0.123586 -0.342478 0.986659
0.380491 0.0834987 0.9633889999999999
-0.227472 0.295069 0.980665
-0.187052 -0.325082 0.9936929999999999
-0.34305 -0.106787 0.973421
-0.322221 0.183067 0.96637
-0.374077 0.105002 0.9492619999999999
-0.283752 -0.204026 0.989633
-0.286692 -0.255183 0.977823
-0.294062 0.26286 0.95565
-0.336315 0.120455 0.9730759999999999
-0.117446 -0.363192 0.989912
-0.305647 -0.172946 0.984883
-0.210556 -0.312369 0.9917469999999999
-0.258722 0.281879 0.968367
-0.406421 0.0455226 0.932073
-0.393905 0.0737741 0.937882
-0.394743 0.0155847 0.941275
-0.238735 -0.297133 0.986672
-0.172962 0.316424 0.9963919999999999
-0.336288 -0.152837 0.972278
-0.244054 -0.266806 0.993478
-0.380404 -0.0674171 0.948911
-0.160276 -0.310552 1.00573
-0.150951 -0.338158 0.996158
-0.378097 -0.0985326 0.948058
-0.355706 -0.132357 0.9617749999999999
-0.199122 0.295065 0.994696
-0.300838 -0.196319 0.983053
-0.329571 0.235129 0.947635
-0.315551 -0.157023 0.982555
-0.334855 0.180972 0.960348
-0.140246 0.324061 1.005
-0.284978 -0.219892 0.9861679999999999
-0.344613 0.204576 0.948635
-0.340263 0.152021 0.964648
-0.39008 -0.0423083 0.9438799999999999
-0.40102 -0.0129876 0.9375479999999999
0.122518 0.153336 1.06599
0.101055 -0.142985 1.06907
0.0672349 -0.139554 1.08136
0.137633 -0.115088 1.06336
0.095943 0.174459 1.06726
0.141422 0.126288 1.06752
0.148382 -0.049985 1.0675999999999999
0.191086 0.0845875 1.06475
0.0729711 0.184879 1.07
0.140097 -0.0813465 1.0666
0.167966 -0.00279866 1.06736
0.175836 0.121867 1.05993
0.170566 -0.0316986 1.06355
0.204108 0.0601511 1.06441
0.182646 0.0300955 1.0669
-0.158053 0.144035 1.07052
-0.206189 0.100479 1.05223
-0.223914 0.0525722 1.0485
-0.164286 -0.151121 1.05923
-0.196016 -0.100789 1.0581099999999999
-0.244996 0.0318031 1.03716
-0.236249 -0.0102591 1.0439
-0.210762 -0.0703101 1.05486
-0.167669 0.116472 1.07207
-0.167815 -0.111286 1.06718
-0.2205 -0.0426897 1.05192
-0.128851 0.152665 1.08077
-0.137578 -0.160848 1.06435
0.331336 -0.142894 0.984128
0.312866 -0.124942 0.998807
0.380325 -0.0562731 0.962749
0.191697 -0.31074 0.987353
0.235545 -0.266736 0.9900599999999999
0.0749798 0.408872 0.972274
0.253178 -0.215007 1.00214
0.219959 0.330209 0.969423
0.130069 -0.383464 0.964641
0.2907 0.285238 0.9538449999999999
0.402423 0.102588 0.949187
0.406512 0.190453 0.929194
0.117745 0.390537 0.974611
0.373638 0.207558 0.942177
0.3792 -0.0911048 0.960628
0.386442 -0.0334297 0.960132
0.308611 -0.191925 0.9837819999999999
0.0970514 -0.404155 0.961465
0.398999 -0.0115925 0.953665
0.213872 0.358307 0.957467
0.321977 -0.0933303 0.997824
0.14786 0.360704 0.9831989999999999
0.415943 0.162387 0.930304
0.376533 0.00394075 0.968292
0.392194 0.0304789 0.96002
0.258806 0.282205 0.9716589999999999
0.358431 -0.113997 0.971951
0.27589 -0.223826 0.988375
0.341213 0.220491 0.954394
0.218163 -0.287171 0.988911
0.407055 0.129928 0.941495
0.165284 -0.329733 0.984488
0.181535 0.370387 0.965719
0.308406 0.246707 0.961193
0.396952 0.062583 0.957018
0.158157 -0.35876 0.971507
0.243931 -0.243004 0.995308
0.23007 0.304324 0.9764849999999999
-0.267167 -0.310407 0.970479
-0.320044 0.286944 0.934982
-0.361478 0.249903 0.92923
-0.241012 -0.319811 0.97834
-0.354158 0.172096 0.951745
-0.407338 -0.120062 0.921596
-0.203047 0.31961 0.982891
-0.364433 0.221683 0.934518
-0.0990888 -0.4049 0.972453
-0.329641 -0.287578 0.945496
-0.26928 0.317097 0.9485359999999999
-0.407337 0.106995 0.925727
-0.188227 -0.348874 0.9839789999999999
-0.419161 -0.0575001 0.920969
-0.432066 -0.00342808 0.915961
-0.275368 -0.290844 0.972873
-0.427796 0.0264826 0.918719
-0.411769 -0.0888151 0.922578
-0.419151 -0.0336792 0.924069
-0.319568 -0.238027 0.966066
-0.35181 -0.168865 0.959585
-0.136151 -0.396402 0.971459
-0.22201 0.332531 0.968212
-0.146462 0.357368 0.986398
-0.366412 0.141337 0.950348
-0.159586 -0.37153 0.979864
-0.32953 0.260352 0.940257
-0.384936 -0.13036 0.938574
-0.325811 -0.180148 0.973513
-0.367831 -0.150417 0.949795
-0.231883 -0.345084 0.972527
-0.320524 -0.212339 0.970749
-0.188842 0.347826 0.975646
-0.397263 0.139739 0.929434
-0.419453 0.0604662 0.9223
-0.37621 0.1814 0.93648
0.44693 -0.416992 0.817608
0.4537 -0.366009 0.8350029999999999
0.655504 0.0702794 0.750436
0.297224 -0.545842 0.828331
0.319826 0.554653 0.813129
0.631783 0.143702 0.76035
0.273989 -0.595666 0.798468
0.132818 -0.666453 0.771574
0.445488 0.485807 0.7936259999999999
0.361701 0.518601 0.817489
0.138739 0.617572 0.8134089999999999
0.325879 -0.520477 0.833668
0.607439 0.2974 0.74093
0.1103 0.628618 0.806111
0.470917 0.467626 0.787041
0.598077 0.264148 0.761978
0.61377 0.232148 0.7571599999999999
0.471901 -0.342225 0.831445
0.623883 -0.0247368 0.788718
0.129645 -0.702042 0.743106
0.206628 -0.646626 0.779149
0.41591 0.502445 0.801395
0.601958 -0.116897 0.794158
0.148609 -0.684885 0.755306
0.631218 -0.0507213 0.779187
0.623452 0.198991 0.756088
0.0945089 0.653457 0.786505
0.384972 0.504715 0.814869
0.201173 0.605431 0.814545
0.604874 -0.162416 0.78598
0.0655838 0.673948 0.770597
0.62022 -0.132287 0.775605
0.260497 0.606246 0.799837
0.565301 -0.219739 0.807889
0.507132 0.413658 0.784821
0.527375 -0.255356 0.824275
0.241943 -0.595448 0.809977
0.533769 0.379501 0.7792
0.280395 0.584245 0.807724
0.278343 -0.570125 0.8168569999999999
0.500343 -0.325701 0.81746
0.576881 -0.179792 0.806912
0.646869 0.015941 0.765608
0.157955 -0.663093 0.771554
0.639422 0.110335 0.759571
0.622089 -0.0893729 0.78148
0.358023 -0.501981 0.828242
0.597023 0.332569 0.740555
0.168793 -0.640709 0.788768
0.393322 -0.466699 0.825755
0.303391 0.573909 0.806733
0.413069 -0.415409 0.841388
0.173033 0.609833 0.816336
0.412859 -0.432902 0.832449
0.337896 0.531525 0.820025
0.466413 -0.386004 0.817464
0.528361 -0.290843 0.810788
0.234078 0.600718 0.810211
0.623421 0.166608 0.763712
0.561105 0.340466 0.771549
0.219288 -0.61405 0.802227
0.495904 0.449924 0.778308
-0.659056 0.0250407 0.695035
-0.361827 0.513353 0.801713
-0.538828 -0.396787 0.710608
-0.239262 -0.651462 0.785888
-0.540653 -0.420011 0.688878
-0.168935 -0.689637 0.768836
-0.249398 0.571166 0.805797
-0.59683 0.255449 0.750969
-0.276812 0.555663 0.809157
-0.311764 -0.608253 0.788332
-0.551656 -0.364188 0.71301
-0.648391 0.0539731 0.712844
-0.639288 0.00406472 0.723179
-0.645889 0.108499 0.714299
-0.447336 0.446759 0.790625
-0.56211 0.344102 0.752731
-0.467674 -0.495333 0.7342529999999999
-0.639664 -0.0367532 0.713895
-0.199195 -0.676755 0.775065
-0.576902 -0.24376 0.726482
-0.329397 0.540795 0.798597
-0.50026 -0.453741 0.720519
-0.632914 0.151817 0.730393
-0.537767 -0.338537 0.744686
-0.356274 0.54067 0.786896
-0.644339 -0.168057 0.662327
-0.17034 0.633284 0.781114
[...]
CELL_DATA 3350
SCALARS gaussian_curvature float 1
LOOKUP_TABLE default
0.21213231278792005
0.6758361344098487
-0.4642541521520915
-0.3053447641642672
-0.26231167629484686
-0.5671061099289512
0.16845344103712628
2.5622480137968933
2.2362707426483666
-0.5557771804313163
-0.05715721855219877
-0.07951328384838444
0.09199208115566793
-0.29768957759910447
-0.8119139396059081
-0.8597580961343392
-0.35249302087022333
2.5408886910132114
0.5642954670507901
-0.24722258820593462
0.30281676238685995
0.37451273849780814
0.18924860041952582
-0.22081626587886727
0.48161893524509924
0.2212149887610245
0.10551884668061595
0.04933266532647638
0.17318061224050657
0.687327576692695
0.11705706170468769
1.1539597623097981
1.3321296491334595
0.8098714844594359
-0.7649347584782702
-0.40933497980949035
-0.9708526904848853
-0.3323670076122788
0.3136006728018379
-0.8900367915618218
-0.7025274657246525
-1.0841996372058107
-0.4942871707707775
-0.4241981432048399
-0.3791130723355807
-0.7336227904152106
2.063513017974958
5.228402134302742
5.077003732413016
-1.1519519980477928
-2.1446962248416446
-0.9957546806330304
0.22906326305688418
-0.9105518844074914
1.6647208507927582
-0.22310250650376628
1.703318672002621
-1.472986962131968
-1.500734214122879
1.7210455210670856
-1.503294556408821
-1.3060573910357645
0.7877430187641399
-0.9804771516381798
3.3049650981153413
-0.8351296144309251
1.668349006106905
3.9206203613566473
2.026155371900282
6.421479340708903
1.5749162731260264
5.864859011464884
4.910425141104623
3.593017593679701
-2.0780191653982945
-1.7639781317536687
-1.1903512486108405
-1.1131228650602631
-1.9450163888144862
-1.645028920000986
-1.6573184512659827
-1.645942490217525
-1.297159299921156
-0.5798347031100355
-0.9070036275242779
-0.007148004139661414
-0.1628115635498515
-0.7536733052787694
-1.4256329232260234
-1.341883938493674
0.2074990191958265
0.038263069895465296
-0.3945602471907427
0.4984381091633425
0.10995248365912075
0.1943784751936432
-0.7369754904849098
1.0896015014405593
1.3807918912767936
-1.4477917546279293
1.2329902162549446
8.288022715863507
4.032836093712495
-1.3168667206902143
-1.1093322436194082
-1.3039874490792778
-0.4768032210351533
-1.2584399875779924
1.308522963699708
0.8114655388628248
0.951315114690907
0.6143546803514297
0.3129196763791804
0.15282268588177444
2.2160246958288345
1.1756278479100448
1.7370957914753022
2.2804352145572087
0.9762850473008466
2.172111364095633
0.634485407634692
1.1740549651150887
0.3817279788447313
0.24339755773197672
0.11585863071988307
-0.04724595213961166
0.6462490127681708
0.3886523786515328
0.24582067320937723
0.5382400533899472
0.26707573167033
0.04094822959582392
-0.1984501089326165
-0.056514042172979784
-0.19121052464194732
-0.056343325625036716
-0.4190874655050625
0.32976485484301055
0.49110344652726523
-0.1228816748038972
-0.11650199000135972
0.01957954502791871
-0.012615017818567914
-0.48653725332508285
-0.045507790433017226
-0.18766611289362523
0.4596696227831108
-0.13222836896412976
-0.07824647167698495
0.9549239689322058
0.6979207288801836
1.0318364833450238
0.05056224912718402
-0.5064492326801645
-0.6653534951635786
-0.4440334903475792
0.667625292522055
1.6633261344190204
1.0453765215171096
3.2352008719010996
1.464397271827564
3.4604507162611053
2.6499145752934328
1.9927268855111504
0.28996408298260984
3.6049684260372716
1.2908254028818298
3.550578288497707
5.105537412479881
4.82589743058031
3.5192139455206117
2.622753076882801
0.48331902706715363
1.3901444154284035
1.5439576949991602
1.2537345121296308
1.2293779048767264
0.7934816362401391
0.18357007923067675
0.21098099444313304
0.8508243038850387
0.04010576800303495
-0.6133790579931513
0.724851729270324
0.8946874296491178
1.4249755320534727
0.6912850876999871
1.3848409744155576
0.7838256571490094
0.6886812967447858
3.565017733266534
3.774146921072483
1.109122295228513
1.4997822208240605
0.6020858038956307
0.7706618231952317
0.3018275190783544
0.3603960713484335
0.9892118586217215
1.3861921305701954
0.16050368071489346
-0.28304323940341747
0.023286304827702584
0.6890840659850723
0.8058909150850481
0.29220162114052856
2.35125159504384
3.842163293168084
0.6509218171777734
-0.09717849580935342
0.353370830947785
-0.15417502441398037
1.1602343734825067
1.4475567906969253
0.3692158404508362
1.5047832478048946
0.9709912072308337
0.5366293254908394
0.27345530516425987
-0.13028252124280892
0.015390226445543737
0.26638054180788195
-0.254784948450966
0.10001339586606886
1.178984881011617
0.2555395943358775
1.529677180365564
0.7517927143755225
0.42734620069176193
-0.015155632397256244
1.688373960675976
1.0708667140745856
1.0852772409626956
0.9669823819325903
0.8655120587301477
0.016147646999018272
0.38494354544515225
-0.44704980937882965
-1.088701790279282
0.32883499694345797
-0.24977704178928894
3.7603591306522826
0.8983815604964338
0.0797181866765694
0.7059601699903766
0.31099160857170643
0.2610088911767276
0.8920344260006131
0.9906486747790735
0.3581593612966285
1.1679040936735348
-0.003989807495077324
0.30905213084090244
0.0870357089897461
0.1773376504821062
-0.1837455895485269
-0.4268416777730424
0.05178242806731359
-1.0004388537655835
-0.05464875389111315
0.151395076026115
-0.21158035586380564
-0.6650987666171275
-1.133364027941399
1.7739661474663952
1.5224986721521823
-0.5678174167308037
0.7107728402187501
-0.20672272944683712
0.4284796506941019
-0.6801769911017825
0.47305167829581535
-1.194469165093855
-1.9573708216726744
-2.7719855152243653
-3.066621910478913
2.918724434221976
3.8209631661708165
4.5613945461005
1.6139444303072454
3.2880731155395537
1.0268528705829478
2.814713567960359
1.1767898270944532
0.21499698819996405
-1.249069812089219
-0.9798427708272222
-0.5875279969541323
-0.9028257272175157
-0.6293571022030198
-0.04814234894012945
-0.01566406094511604
-0.37016056551071863
-0.3329331047171604
-0.13755359894762054
-0.25383418181810746
0.5443523137893991
1.3001039034910438
0.855626206627071
0.8373156274696196
0.07345623774118076
0.5087986119141064
-0.12206140866187046
-0.05354450728026151
-0.2726745994869604
-1.2471484144583003
-0.6786685195791429
-1.007310163382306
-0.33304635820883444
-0.2059701460716822
-0.502104680280615
-0.6130318426879185
0.36800374302424166
0.4891754460210066
-0.05701556985190187
0.6837974440199772
-2.5830800726495617
-1.7619720225059914
4.355179690172458
3.268381378533296
4.178702719881055
5.496247032217092
0.15391471242054622
0.043799923959635084
0.1494542273407664
-2.365271696094387
-2.7775903224232867
-2.338605041545252
-2.4615120267369974
-1.544163645950817
-0.8550214452233535
-0.7240466314821591
-0.6513540202258505
-0.3538331435677627
-0.5672389590749951
-1.047525282567918
-0.2393525735156708
0.21035383383019962
-0.8112246907292799
0.25475725205608957
-0.18940971637372167
-1.8710679400183552
-0.7789531646600341
-0.5340325917213125
-0.6335290919372423
0.27264694927143646
-0.269235000040868
-0.47764179760344483
-1.7700566636559483
-1.8366150220737678
-0.19075672503127605
-0.03069106152620879
-1.127998024187216
-1.6914003122354748
-0.371378877767771
-1.8258266095207096
-0.4392468166351863
1.4073462659986644
1.7240635506999427
3.0327178056828155
2.8760661844866044
-1.2754046298486783
0.9155863572670041
-1.0649294371954512
-0.16740031716381062
-0.7015780020002029
-0.5261402037833611
1.0171563758560263
-0.5322070926801199
-0.009760460443096752
0.954269148338722
-0.15849424295735814
-0.10191115783403587
1.4335841143610273
1.922093253808638
1.226624016801347
1.967990636255221
1.1991064930856645
0.8714763544909956
1.7893167502463778
2.361929457205147
1.3336681402665445
1.3905020434274455
0.7915719827966142
0.2495040542240302
1.373878163490307
0.9588659607830221
1.366709080538895
2.0220734707321855
0.6142788665372284
4.916383762483342
0.8340942370295288
4.864683912559826
-0.13098321284442502
1.3386773976658997
0.7068900752753298
0.6904361461074396
3.845851980506145
3.7191928695934875
2.5072008626245914
4.46684505288418
5.352073093568275
6.9444935797240115
3.5681884204483314
3.551255462406133
2.5799624852728393
2.985787106107722
2.7395289638502685
2.938892353990849
2.1152170408514577
2.221183546438208
-0.18871440528039285
-0.04232487661621562
-0.6600320915468656
-0.27550741143506857
-0.5043312738809201
-0.26619612243330026
-0.8606001598738291
-0.1614201229575315
-0.37851433044681176
0.17427617780530857
-0.439104054508323
-0.18786716316377927
-0.27137524304982685
-0.13808745428257352
-0.9000005388958818
-0.007186747263903059
-0.22313636199565084
-0.592944654277502
-0.1926544960509169
0.4605104783267058
0.4282512880360071
1.9558277481180288
-0.12645346192779688
0.396370262856839
2.0331397840279277
5.903169873312666
0.5943197233018689
1.6812180974777011
4.6030992658200764
4.593569166125688
-0.43419817726139665
-0.13054525234923936
1.093480646054455
1.062140413347977
-0.3368890374099189
-0.09893259528182416
-0.5429541284120608
-0.5440415710504486
-0.5421709257599019
0.433454969687602
1.4078651862151494
0.8829285402300757
0.47384528808260296
0.9809930568014154
3.620599000774736
-0.8276036742104148
2.364792778015026
1.2916177638060211
3.845777003382621
3.9667278901404783
4.710947074213722
2.3621373238338736
-1.7649270400582147
-0.0763366696370733
-1.324284742489479
-0.4690285976034196
-1.7149185548460446
2.7029271094888165
0.08088597795912829
3.2811392238478314
2.486357808507355
2.8225039994114463
0.779063184018525
1.857310741709717
1.4672567827775371
1.6147382828054735
1.6721706544272015
2.9796054681669113
1.7021408341499624
1.4266414782512844
0.6018100526149178
1.9555569662047878
1.1871977183883038
3.560366302744512
0.7343482109898385
2.498192235166285
3.0353174268910075
2.2620107028422174
1.5325000473351913
1.6614113799666104
0.17367571867003442
-0.14951778467826832
-0.09115559158596576
-0.13701750275013447
0.25789123685332493
0.7489464630090441
-0.0180471866669629
-0.33377512672487636
0.06497961249400055
-0.08988859089226187
-0.19314763412331085
-0.13721588945637747
1.1924087016442901
0.46187529528793997
2.822516954498195
4.0441055870102645
-0.0020525808288665596
-0.16244005859443106
-0.1477124534500386
0.32855237115338204
0.6690777498584526
2.5676243488254364
2.295434381912729
-0.05150129883497717
-0.3890480053550105
-0.4493987853108118
0.25783517709436493
1.1351848222467766
-0.01634935405966808
0.6904100347006171
4.074494621905712
5.565973239400224
5.61027828770426
0.6715069580248777
3.353043152162782
1.0462081373304906
-0.14384943931290256
-0.8042142071834512
4.076974409578999
2.2155905962385867
3.0133661017483147
3.297824593197494
3.191634200352914
3.97875126088567
4.1703052447841955
1.0683460994132927
1.7369235417389877
3.5429579255350787
-0.14183900798907156
2.2913927888540635
2.615374549024158
0.829299355484328
0.72485183815409
1.1342792071008345
1.3538134499406906
1.4299368518732325
3.4194417111216673
5.236389150395206
6.901912249473546
0.29026482042569113
0.04257459509758371
0.4388304729466571
0.8119951764891531
0.23318796186301083
0.5597268382907391
0.21810615383158646
0.2667763831741689
0.5536799513449047
0.8859972053875735
2.3998420501683824
1.1279586435177562
0.13799536113368238
0.35245635963707167
2.44001823447904
0.3557382915271347
2.714571176295859
0.27817178321664693
2.769966850673208
2.538883655670748
4.738089940627432
4.234613541482454
3.6366919894718546
0.12135838414178006
0.9507568346955234
-0.21007121746142407
-0.01322086305045933
-0.05106864867042345
-0.310128027407649
-0.2725841020905623
-0.5396402694813164
-0.6626853127079694
1.1118680269893084
0.3226801208283109
0.45384121585372417
0.5722483792674646
1.098256450596783
0.1936733469867182
0.04919999245735682
0.7867769992783099
-0.038583023440741576
0.07310956066811526
0.05223801332812708
-0.2702223812423611
0.2883945361047386
0.9118866022444639
0.4381093496871068
0.9431942524130918
1.4037549391597581
0.10495597515515057
0.5759011434671114
0.5592491985825082
1.189838714856482
-0.07314817265052802
1.5811473253790738
0.9746875827648283
-0.09204960223827563
0.0995087682033331
0.22508069314494686
-0.14693026307512957
0.03871092579481632
0.711953079252954
-0.32849894530817814
0.10250262295748429
1.280829679141607
-0.13973913453797898
-0.1110635083307179
-0.30158890585531056
-0.1628009423258973
-0.04117682531256832
2.022360642619273
2.997538780345248
-0.1812313263616748
-0.5145026159966282
-0.3317645475410202
-1.2558214649498145
0.2412699310064733
1.8850220856175792
0.42547461497837813
-1.3400940281230653
0.03161089568259945
0.8903804458372285
0.18145649977342224
1.8482159157358276
0.30880538091199516
0.12648129861649243
2.3053437811720907
-1.5217533097500677
0.9390061932242795
2.504872715875311
1.3011862355746713
1.4297426935821533
0.8540564506034896
0.6393638383323057
3.253474459437009
2.6306148625649732
2.730826100660969
0.11099134046746621
1.8098052979891643
1.913083871612271
-0.5085610770026279
-1.1771241424476873
1.1378156402152118
0.2145336219769995
0.5755990183963156
0.7470768171641093
0.0981819943983478
0.3346198900590767
-0.19138948259064173
-0.12101136101830873
1.861420001774711
1.1770365431948793
1.2585243968168875
1.5924777015771303
1.884154551497618
1.1022544180675582
0.2918896812252314
0.1337639164035513
0.7601766775718015
0.011350789310674292
-0.18349402218488392
-1.747535978547162
-1.8453532733183258
1.8039731691105254
1.998717189991677
1.6805883503102488
2.12862234998937
1.3377728432457257
0.33971488369987285
0.5833577446135542
1.9613448674993479
1.2408040437408014
0.963798787890406
1.3380039848471654
1.1937770541752375
1.0836651528861148
1.2572457114162248
-2.1871679857602517
-1.1021370015700345
-2.9328062153109187
-2.2055540707368357
-1.2526688775692834
-3.624442991104873
-3.3434418970952113
-5.363653886237175
-6.526696351213102
-5.1797350528885095
-1.8845258330776007
-2.672624347122113
-2.72134804385354
1.9003431212183477
2.0856342236081087
1.395888214894072
2.6958322415638323
2.647604604236211
3.7622575285162103
4.004326260993152
3.0576214742061563
3.1626942822980206
3.686120387558943
3.250676821507503
2.385770582133322
1.8633987240756373
1.3931862669402655
1.643831910374305
1.5251892777799425
0.8044610926183073
1.4314705068028744
2.739978745510241
2.664389969718074
2.7566989772940165
2.0541452973938994
1.7821735043790734
2.5393523883561473
3.962576097230905
2.6949391417671507
0.9330131702854774
2.8481629816546663
1.9443774434841132
-0.8567141794744342
-2.727727839084129
-1.729134079517716
-1.6027791806948795
-1.0028117947739
-2.2033683689022228
-0.8397744556927385
-0.5139587108471121
-1.9949294280057366
-1.7826930422618665
-2.0421633176726517
2.297810375659788
0.19375241772131144
1.037720536966969
3.947396594415035
-0.08861459727263665
1.6156461016391714
0.4190589097661093
1.2793514894322597
1.9159145758881848
-0.01603865786101033
6.041821068777308
2.3298038951106532
-0.32350223555139723
-0.07556260755743802
-0.5210175964752722
-0.7398519298581696
0.40934721525416157
0.11107528080034035
3.0146084918507587
3.328443472642252
0.2773317305628926
3.16811851946078
3.4890506881375387
-2.092798284683584
-3.520733777817791
-0.9250771551979438
-0.6351370136898069
-2.0818520921010397
-5.067865331177021
0.058492343256671825
-2.6257321564903955
-4.581631512927957
-4.417073332761763
-4.35076642350773
-0.8776325380682952
0.04161320345032073
-0.1126469056269128
-5.65401068981265
0.45008905903789004
0.5002182751656558
2.1874715395921944
1.976728191736741
0.24611349345330186
-0.2536634607197171
0.5498094388040022
2.328386264209234
1.4887217237212005
1.4242076111421047
1.4136539612073369
1.5049775221860306
-0.24547447718827836
2.7230255569722157
3.7254577676648095
3.442707996220205
3.9463697978057946
3.2680255730481504
1.0554989557005046
0.35660195906114367
1.255394691345194
0.7344450441487944
0.5797504112558778
0.5611410713298891
0.912057848104863
3.0351261630346604
-0.2891641325440129
-1.5646599085895727
-0.3969467437173454
-2.0509154043613407
-1.1777507505565126
-0.9509655301955291
-0.5565387627877761
-1.3996470064763522
-0.031095660045773466
-0.46878489222844155
-0.4149590902562638
-0.6914256293891197
2.57103036403307
2.1173539089358293
-0.053933250610379374
0.46082416907062124
2.0784920910444176
0.7914275320361204
0.4673957040737994
0.07240055812847812
-0.5510129174308186
2.0799791291154754
0.2104888824514855
0.5135972978303323
0.2342302059507807
0.14742797231642654
-0.7109063065943251
-0.24468970685315614
0.030272365384410346
1.4317417944932291
1.1852369610084827
1.7048000055060502
1.3656036045717856
0.9843472462388501
1.1725660342313518
1.4228640506418468
0.8110037121071523
0.4007139400100973
0.609693053464786
0.3938952885220263
2.2203835171924835
1.675499056263933
1.739751750331382
2.4321709520278274
1.8500907540551141
-0.10629738093375286
2.1553279937566985
0.6242459386066153
-0.19804555165146065
-0.0333693905397913
-0.17659932878374848
-0.15602891486668952
0.08962474303274706
-0.8640885081670051
1.558111861783147
-1.2087481021768403
-1.208243644573808
0.26157352822459967
-0.4402047531565546
-0.2951946258454977
-1.0237692552574749
-0.6530528607840115
-0.6262565127531887
0.9198271545188321
-0.668160604575567
-0.462848896692257
0.7642278796756746
1.2833175869900602
0.8821487077631202
-0.283670834167487
-0.13505814865335652
-0.025348504085264872
0.19675520487406795
1.2804765717416111
1.5558394533085302
0.6249689825405049
-0.10826180062253374
-1.2727789584430882
-0.9989694383067056
-1.4795879651606192
0.8249540732554992
0.9529367271630227
0.5065549661728986
1.92754893296352
0.5657107097141356
1.8427568263940073
0.9273003641347468
-0.07437476148407746
0.0037229674927734546
0.014355940095149178
-0.2951880223563105
-0.28455504975393475
0.023318234809935667
-0.04033722149178729
-0.1884568151265114
0.5559352563166103
-0.1608228361845005
-1.3351403478158754
-0.9011077800485405
-2.077175597030678
0.13307814939962237
0.5574811691384579
0.7109492729595216
0.5932242408005926
0.6969380576247718
1.150931333959797
-0.43728017255169005
-1.1401470214231615
-0.9641547960579425
-0.29999327787765134
1.5729041369770564
1.2127491488406243
0.19460188936726666
0.36672959774387315
0.13173663295670662
-0.023713638524662198
0.4842310193327148
0.5479407284873163
-0.11908027378908814
0.061286404210313575
-0.37736495621405963
-0.4527530820513538
-0.37034631405923324
-0.6280834288108125
-1.0121248158380012
0.3321505119560296
-0.010037965452541098
-0.14497286719666289
0.4806610295562793
-0.0002509268922720326
-0.07052169969878605
0.3314768859002733
-0.09678427423475217
0.0042176045453307665
0.17520211938568772
-0.20812273263580033
-0.15547193632227443
0.47935034462981946
-0.2440379899683176
0.5112245468587322
2.620923278219661
-0.5651158505166299
-0.06021026820683861
-0.4131623309840638
-0.7288757517637907
0.2649544922928495
-1.334094379349928
-0.6168606956722331
-0.4175711792647277
-0.20024422183953244
0.1382975273457081
-0.25819023885020753
-0.10851504710311644
3.566827428335674
-0.3603133578289962
0.22049532286583867
1.9533199167309356
0.6891962403509798
0.14943004846535246
-0.22382580575418234
-0.7772340111799889
0.05302862115487355
0.06667063469505286
0.15479787563616138
-0.384968316249466
-1.339574462731451
-2.0430718696214027
-3.209833705908844
-3.3599229073729893
0.9646769118575491
-0.45189969320296525
0.007692325232461397
-0.22028485920953947
-0.049126930728415036
0.7747147747331148
-0.7731665544662104
-1.832913073807397
-0.2436444792982735
-3.888322363559251
0.7727786920306493
-1.5251726614900967
1.1486012171471738
-0.954580985936342
0.7969044939275969
-2.3787767321040483
-1.471241307666224
-1.7189715880096736
-2.267673606302329
-1.6702581878860598
-2.288811313699374
-1.9304465088261045
-2.7681308257432704
-1.450270952853746
1.0340938799870514
0.7795698606718451
-0.48336256624667856
-1.2999358871493056
-0.48675422832241066
-0.21888292571243909
-0.30254810812773025
-1.7605204064982534
-0.6151370281813353
0.24998736784289977
0.38208842583823444
-0.3765319549357609
-0.9658509360718825
-1.9914745827611058
-2.323278622285084
-0.9847709725715025
-1.5076564882663401
-1.6869506519968522
2.4947789497502093
1.5433583159872777
2.540624067591361
4.1808664281237675
5.027639213528845
4.601108046110586
-0.5052969928039401
1.492436913258682