# vtk DataFile Version 1.0
Tissue data
ASCII

DATASET POLYDATA
POINTS 1714 float
0.4093800089920498 -0.0165802072768963 0.9246569462420976
0.3112101855578486 0.2224537966703215 0.9363974940800448
0.399676009455602 0.0109095195577766 0.9313137066883044
0.1119869099313186 0.3765546257431129 0.9332379149393691
0.3792918564352763 -0.0693417790884698 0.9346187144368912
0.0673916396614666 0.39040554860529 0.9307230858903358
0.3187554684870917 -0.1826904617060543 0.9446164541734208
0.0993178017048768 -0.3725906078232825 0.9325982617038008
0.3130683193401578 -0.0993912913270658 0.9618289665460132
0.3389262761112923 0.2158775202289908 0.9295677112463334
0.3986645191320908 0.1273178457435557 0.923826048220609
0.3166701339822992 -0.1522130719608929 0.9524433518322766
0.2262472052896993 -0.2462569142457371 0.9553655709269304
0.2137965514980262 -0.2733317224887441 0.9511049533502924
0.4070750063022279 0.0984303034812539 0.9243535585586989
0.2818438361594366 -0.2024344643831352 0.952522992827004
0.188633715075889 -0.2901291756778215 0.9500738907074524
0.3953192884667769 0.0731261885183198 0.9331389203125624
0.2306844531457588 0.2988068194321398 0.9361447308243344
0.2954603247002247 0.2394562653234841 0.93601843210575
0.1252740373517267 -0.3555812860918523 0.9347849859444796
0.2413627872692849 0.2664243613347734 0.9440260769120128
0.3703680118378898 0.1984237214201791 0.9225396461605467
0.2511751833906288 -0.2273559849461417 0.9541321247522152
0.3644225557680118 -0.1121761769183113 0.9383793691069632
0.409095820039048 0.1549771042710555 0.9140240935726104
0.1483098709506198 0.3435116442497059 0.9420454631645994
0.2606575550612793 0.2868800274919909 0.9302968098968376
0.3342120288444787 -0.1302112449989336 0.9493570934281576
0.1858187099110906 0.3479940371712859 0.9317936410970104
0.3754078971444166 -0.092290098552783 0.93504480848063
0.3851144352768094 -0.0420688260360542 0.9336462878958894
0.1819783455404535 -0.3082495483447642 0.9451345652761168
0.166242263358296 -0.3359225388286364 0.937535471588844
0.2188334823026392 0.3307527286842635 0.9287887407807676
0.2870686875223618 0.2763763060274451 0.926070227988944
0.4016845695404929 0.0436964643527257 0.9316676374687836
0.4022027326777802 0.1825239645344605 0.9121465066633688
0.3040595208353287 0.2618546670239614 0.926366677934142
-0.2408239391143178 0.3156696095805045 0.9276523865592892
-0.2694619590444544 -0.2704158092378819 0.9441539135406856
-0.2521379721627688 -0.317998491328749 0.9392113387097436
-0.3926829710200659 0.1159875197788826 0.9121135828335863
-0.3359029443974959 -0.2486293261587535 0.9250433920893372
-0.2668416741364692 0.3118511610749621 0.9208567727267656
-0.3635506927063758 0.184929610857528 0.9194587044750961
-0.1618687231450986 0.3275315534351062 0.9444361045899524
-0.3619064165194978 -0.1459531598532035 0.9227339684544188
-0.3504499508822629 0.2373178326258278 0.916958871381682
-0.2553714412640469 -0.289354600655062 0.9442747399878748
-0.157420412365683 -0.3411742335287053 0.9470941062521424
-0.2141358652660525 0.307290059354059 0.9385023150885236
-0.1902990368002488 0.3067521291056576 0.944767808016026
-0.1224515032266919 0.3401421098765156 0.9468742408008328
-0.3925068393172848 -0.1298872690457742 0.9080242398071796
-0.4300099812162534 -0.0145903734384948 0.8982820870280523
-0.3996393281369412 0.0724697171066761 0.9120087615675394
-0.4075879304568801 -0.0998630670847866 0.9025183994443918
-0.2947919282492306 -0.2925439985335414 0.9316595945143084
-0.1899565896354407 -0.3086933696575658 0.953963526923002
-0.2862556798979632 0.2824365007587337 0.92286376879021
-0.3124345635109207 -0.217253063901722 0.940130335959802
-0.3345759013421128 -0.2672669597537709 0.9217894488163356
-0.3361740827266435 -0.1709383028229272 0.9345534289859628
-0.2160037569319057 -0.3191348482492437 0.9474078972631904
-0.4119902813346598 0.0435945053608959 0.908369255140706
-0.41909123171464 -0.0458673200519226 0.9015203120052736
-0.4207552675038237 0.0193762456102546 0.9045762617774074
-0.3678726690138536 0.2158694268356153 0.914168122347382
-0.3395810271957744 -0.2295918612985152 0.9265463569605892
-0.4050218931808222 -0.0698589570068106 0.9061969013162462
-0.3285011843735936 -0.1975807045688569 0.9351960916204716
-0.1722469370962769 -0.3193264775296742 0.952789186480921
-0.3102238977976643 -0.1718954251121376 0.9454269507250121
-0.1200498438133881 -0.3586437560559181 0.9431325537776551
-0.3248035151427377 0.2423654600306215 0.9232403711190484
-0.3235535236567344 -0.2901399745757156 0.9214041603811124
-0.3150355304244321 0.2669990549423571 0.9199164855226711
-0.3757975985257866 0.1480124766867723 0.9177197011371746
-0.0867682679796884 -0.3779651808492383 0.9388239824170164
0.3531798978993747 0.1167958871311807 0.9428735611739616
0.2560802718246671 -0.1651265714960423 0.9682762488835078
0.1892120001729518 0.2700207911698649 0.9579213074072258
0.1748788034449613 0.2884936091990524 0.9558837147156816
0.357872701035054 0.097938777260099 0.9439443230484146
0.275570128607256 -0.0676418747570908 0.9760429162157626
0.2980695142544931 0.1844008406663566 0.9490445190946796
0.0844487779985656 0.3045769251791723 0.9629581518201886
0.0966136445340533 -0.3155805598018508 0.94861023693935
0.2641453907095914 -0.1214183060035436 0.9744084300015627
0.3152379855175566 0.1641612105555525 0.9478156102172508
0.3319597351609333 0.014214025008056 0.9583029784397824
0.298498739430765 -0.0501970269565368 0.9702033167809264
0.1235910843076024 0.2858966147412611 0.9643383945066204
0.3375263852481462 0.0519834362581486 0.955545141994218
0.1772499507295331 -0.2379540830462061 0.964865527678661
0.3368356459839252 0.1641745082198165 0.940842959346603
0.2237655485853964 -0.1685940226051414 0.9741213173733207
0.2770633946257881 -0.137964534284674 0.968493291834518
0.3625782562530881 0.1460502022482392 0.9349657496735544
0.3381734050943268 -0.0206221155067947 0.955515406768238
0.327298743067915 -0.0581311737923853 0.9589588722799962
0.192129965049101 0.24694095160398 0.9626243481171346
0.2674614373535182 -0.1000857304674887 0.9757794488319912
0.2607492988825406 0.1781167176859734 0.9605080949100722
0.1397503633991892 0.2745978547135381 0.9648693196535354
0.149540458844652 -0.2540004003356588 0.9621514846475964
0.2067095202364934 -0.1950477810072661 0.9709701121509364
0.2228788290933723 0.2326470142141419 0.9588217411830542
0.2014290164444205 -0.2219041274251734 0.9656728956646128
0.2573952863193831 0.2189364660328556 0.9525030961701482
0.1109101040946192 0.2976691890248477 0.962815605188442
0.1263898241765124 -0.2642340032686778 0.96002660181003
0.2777335706762116 0.1902808523091597 0.9533090142653188
0.1187579631846378 -0.2905443477128004 0.9536791398788304
0.3551618832211964 0.0733163867792394 0.9478189674271976
-0.2052367809475375 0.2499620856585482 0.9540124101794107
-0.167026087710296 -0.2730221438042095 0.9627504060134932
-0.3118956133481476 -0.0925028281532318 0.9494389007266064
-0.2934177589356412 0.1578334737367588 0.9452133733561991
-0.3423643783646071 0.0907588139150781 0.9350984278441332
-0.2558808258993619 -0.173995311091935 0.9591603395553232
-0.2585455649586867 -0.2183835734720385 0.9550816596317256
-0.2685540705253495 0.2266083364040594 0.9395261958693008
-0.3060286347883623 0.10317047205934 0.9487767214955588
-0.1048017814423136 -0.3019801936607487 0.9583971137179224
-0.2764743213162672 -0.1481188353648641 0.956424338172306
-0.1886111268878387 -0.2632299593900198 0.9624378440848532
-0.2347410100956337 0.2411669601170434 0.9469220192106904
-0.3731888455445016 0.0392795688813745 0.9245489080480288
-0.3614784050238595 0.0638126319950234 0.9279432373480496
-0.362098995662502 0.0130466590004423 0.9298409760026356
-0.2142847700195995 -0.2519871233568715 0.960038187493896
-0.1546229626131667 0.2642595088785784 0.9619257914367924
-0.3052808540074385 -0.1315643737926159 0.9500249142416466
-0.2190949425041279 -0.2260546547004991 0.9625345836301474
-0.348345332956721 -0.0589869088220611 0.9346435487949888
-0.1431374378837546 -0.2584516679907951 0.966789550875276
-0.1345402819135592 -0.2818205129509223 0.9625772082231452
-0.3460998486075604 -0.0859100423943362 0.9346333660985146
-0.3240162186928328 -0.1148336363084663 0.9434867276094032
-0.178399684511703 0.2474975284666429 0.9608771554380646
-0.2719265779117796 -0.168209406074149 0.9560957863778988
-0.3009813330495829 0.2041990788020093 0.9353549746396156
-0.2857582609296232 -0.1347980146796721 0.9550331861101352
-0.3054048921020993 0.1563528527124558 0.9421699076319043
-0.1246503847131417 0.2683903453809551 0.9656212388517438
-0.2569538812953156 -0.1877477359121027 0.9581561668931956
-0.3147778711411049 0.177777397933049 0.935896951963735
-0.310087897576693 0.1308076991312554 0.9444876002305368
-0.3575828345668868 -0.0373836805504153 0.9315885061403252
-0.3679641244364382 -0.0118122778658422 0.927827583248153
0.118871691868247 0.1230034837642906 0.9901915657321978
0.1000514800707641 -0.1180521160751952 0.9868361120200632
0.0700105186435786 -0.1126060789252898 0.9889602503565872
0.1332394462417681 -0.0967892290223608 0.9869922277405709
0.0951926857132225 0.1402721605858352 0.9887250766884146
0.1358021910472713 0.1021238535746431 0.992356700643633
0.1436548179034114 -0.043395566832765 0.988708784390086
0.1781834900647392 0.0679958593994198 0.997521420065168
0.0750164636580978 0.1468894131516891 0.9887053841307002
0.1362490764708259 -0.0690180325954834 0.9875915681601551
0.1600096915593734 -0.0047651576830274 0.9922251599489138
0.1655501227083 0.0996710323930596 0.9929631282719066
0.1627855238502569 -0.0283640402803277 0.990179739138896
0.189371638253935 0.048185842481935 0.998883274732171
0.1717254538827228 0.0230255986226626 0.9955187682938498
-0.1369298013260147 0.1152127140035097 0.9893470457774646
-0.1820405140817245 0.0823159321729258 0.982468409071273
-0.1990654256054047 0.04246275707502 0.9813155657899731
-0.1445990861391952 -0.1234876785923737 0.9849871960812344
-0.1729905791328279 -0.083418646746292 0.98560636714164
[...]
CELL_DATA 3350
SCALARS gaussian_curvature float 1
LOOKUP_TABLE default
0.37460772442961615
1.0129039390717176
-0.45394825989864823
-0.3560895514136207
-0.027195386420739653
-0.5676328925778136
0.6911683315767385
3.2448084897544476
2.9934956388279756
-0.4716048916552589
-0.09518004010273015
0.06593119525690419
0.07265675497299366
-0.14699818349195076
-0.40359737087547176
-0.7378146097792047
0.1764154133348988
3.4952594042520246
1.4669656533249331
-0.1543856448544326
0.378610349683428
0.5309480860959184
0.46071375464525277
0.2510773066775103
1.7227091616911674
1.2659470959784265
0.9969902918535418
0.6872095173797426
1.3443595771305534
1.9242476691051609
0.9718312674942043
2.1631726627102896
2.2638285669613016
1.7523640318210956
-0.0037698631118251447
0.20640175504218497
-0.3160200472612963
0.8656390073729301
1.2078576829428898
0.05973563825613809
0.031858228224017536
-0.39870986770303884
0.37600772686894574
0.09084271980919868
0.19542090923351346
0.008728975380178226
3.4369528693611393
6.395997904265789
6.5890042203013754
0.5153557176585519
-0.8674850241992819
-0.27535410174858094
0.7278122154772882
-0.024132387542672412
2.0322614630539784
0.6071594364419192
1.769274775447828
-0.4369654637540025
-0.4255459168376641
1.2517312123953512
-0.568735822453955
-0.43679793340013423
0.6921610227729302
-0.15602375447781253
3.676903594205397
0.22880707358066388
2.750327054681858
4.773321548694533
2.170988584421396
4.057193849282191
0.9125271936187561
3.2551313657033853
4.59762684916212
3.3546985269842695
-0.9354825032080032
-0.7202463167236609
-0.6484923993527607
-0.3598057468329168
-1.0626658862273435
-0.8590785372857705
-0.8129921418284886
-0.6310978936842865
-0.5474459307090281
-0.06893238514785693
-0.3278704866286889
0.33631002143151734
0.08409747966677482
0.08562400155648317
-0.44070125739135335
-0.27096088794333983
0.7875939602645731
0.5406383774514334
-0.12357494013047733
1.4100751832238347
1.1133476310951191
0.5312631620154783
0.2806440978200445
1.9773167589395606
2.0494682880536836
-0.7271406482319498
0.6472032887712803
4.845476213802435
1.995055842913945
-0.4413804240513475
-0.5039303924459524
-0.4989443471876718
-0.11994049485952217
-0.3603394304314071
1.8125153546415054
1.2922703208937663
1.2925638051594057
0.9641964785279529
0.4468917657663191
0.25501405865003307
3.1287691216326445
2.2370521657922815
2.9202238749609384
3.2916957970535625
1.4511666593653278
2.9646050992152233
1.0720206885551156
1.773514591792367
0.8672136388602171
0.5811480096784598
0.5400084765589125
0.30876939297903605
0.6750525227917258
0.41946682891806797
0.7595847394658028
1.7595915088061487
1.3193803447234032
0.03804002671424447
-0.11830202525036357
0.3976118697444253
-0.07666856431044494
-0.07260327615143879
-0.16815994636176632
0.4401091098226061
0.7607530387403763
0.15654927071501004
-0.2491284226057254
-0.25487721477962616
-0.32938442553993563
-0.16257918876336794
-0.16315242682789258
0.01488818906578624
0.3748121348724515
-0.4717424105028941
-0.3547654468248614
0.5614753457754795
0.7898623711796074
0.6558816531648651
0.18831469798081002
0.028631982427502048
-0.057641982564775485
-0.11506979079586839
0.11657028816016599
2.530228030072439
2.3957839041684337
4.990005786259365
2.9323846632637647
4.817957641796802
3.1714450063548663
2.557924062410717
0.6840427823705507
5.041622640659567
2.6125295955713423
4.2748153251000165
6.776009093319661
6.181249922222673
3.900144632740381
2.7157853397611675
1.7792012843472957
1.9314247948213157
2.096047340699946
1.4761496123253035
1.540116253952922
1.292741335726809
0.8080992174535118
0.6781407996742548
1.3730850819777154
0.4666430760922304
-0.19067196387891422
0.990755009882629
1.2186078320378442
1.7756149989718302
0.9376935882844091
1.7868441310256447
1.0788400752610552
1.0399609245564148
4.240064206832974
4.741166291798118
1.7523752142663915
1.7907470111358952
0.8715266118343642
0.8594039384133729
0.302545182018115
0.45302700696957704
1.4025972522676333
1.7688092259533192
0.6801641581800589
0.19257256662613387
0.2883964547711191
1.0303242067179557
1.14280413774934
1.609434906750759
2.980142643765701
4.877491109820188
1.30764918509042
0.3445690909425005
0.43221322940862766
-0.01016105478663909
1.6547191406057102
2.2078279286262776
1.103845008320403
2.112076210710549
1.8221602504458283
1.6705048454766356
-0.01976126279199697
-0.1876886866885586
0.07404451909369265
0.032899218368456495
-0.4585540304233697
-0.2252524708499007
1.5953607361675692
0.13670320370412015
2.3656851847121536
1.4061480367381547
1.0367244202733226
0.09992087099350039
1.9914415009071649
1.8194191649245703
1.2274289466449309
1.2082134172521026
1.4867053831413624
1.1729893373826759
1.168729315356204
0.5220785146805044
-0.09677119139730256
0.9962799207980226
0.5658850007511436
5.103652523034131
2.1000363451308615
0.8377721118487076
1.4802406436074393
1.2040305628074466
0.7016214880932892
1.3799905611100707
1.4783909986201902
0.38054484805444183
1.6146373008087556
-0.18439123647286282
0.212038278351249
0.09189496655060844
0.4565957852759236
-0.5071924527354249
-0.8245229735927135
-0.11375519308762988
0.6637908906955179
0.17641207432613115
0.21029507941845405
0.10936556823555443
-0.029491124084252696
-0.5181706756130822
2.018711860401533
1.5249294768032298
-0.17085186146517
0.9075214061673048
0.2781869921195956
0.6845208611374011
-0.31912696666235835
0.6032922620307893
-0.1014397693032133
-1.0012406601983566
-1.4123987273256426
-1.8235200666919564
2.828368359319823
3.6426505536269325
4.170236574288815
2.6610485776546646
3.542653721791915
1.2484763038252358
2.54060833875995
1.1180619760106372
0.5136207744021349
-0.544604503084986
-0.39462598298993534
-0.26711359726167583
-0.3861804411950436
-0.18642218194016752
-0.3616574054040638
-0.2502869468703791
-0.7314807418742864
-0.6106431670948823
-0.25705263654301824
-0.441644852402158
0.8560164679255232
1.5933906178524682
0.9725652198295918
1.3394045728657462
0.5631679502439696
0.25854288287430893
-0.4240915291073854
-0.015144117785674385
-0.2618924410906955
-0.10653314226996244
0.5179236784579839
0.11392462426027788
0.8327638996602332
0.8110643607426742
0.37879032654644607
0.2638779687333036
0.5048271617120218
0.554144635291873
-0.0640752477771591
0.9555223382827552
-1.20316276152417
-0.6628302937394976
4.717846708730917
2.9531997645794617
3.84489064542482
5.012252607141577
0.1353532388036624
-0.14541593442117484
0.15162300207068602
-1.1973472331612278
-1.5888463905758565
-1.3010584714130973
-1.37960044912553
-0.6570147653765555
-0.291785027258642
-0.21394859264632574
-0.4753205702944345
-0.029214863045007256
-0.3908672911100546
-0.43782872763794006
0.08056245066515849
0.526211432999572
-0.35383217336857387
0.48732355612698613
-0.16869840150736676
-0.9764529079793194
-0.7345689666277821
-0.5537880777278321
-0.6546636843184953
0.6252365331348371
0.12470172011011316
0.08946678210609577
-1.0901916218972323
-1.085850697217912
1.0114837964157881
1.2476306071070211
-0.3214609439046568
-1.2641413513235944
0.13464687418819454
-1.547467609258613
-0.153020308426144
2.654371516341559
2.635987829616619
3.8642654797980374
4.11879597721421
-0.9607970300559462
1.5639388919965438
-0.6983190606169636
0.08876456971347926
-0.25682900052878604
-0.14456533919006687
1.628952503887536
-0.48185399528048956
0.25843504599114286
1.0237674866896183
-0.17680344372854145
0.08775806931314814
1.8467270530001303
2.204481930084057
1.4664610324273886
2.269933793598329
1.2859898172255015
1.0475059842546215
1.7938260408544355
3.0418815768345295
1.5511119372477722
1.7629022609245704
0.6606978008537006
0.16375220328910595
1.847901707421527
1.344413947028753
1.6661448834685255
2.362239641116863
0.2927040005697905
6.127709448560132
0.881851184888578
6.267396735685979
-0.3124942003985001
1.4307784907223908
0.7962950605675535
1.185791967093461
5.0330145000074955
4.782254028935711
3.164102547409466
5.824991792095052
6.548838197249542
8.619794805247057
4.559797139499391
4.488312853134563
3.120113333513612
3.7421506783264293
3.415156700767111
3.6011980116992
2.594461472116297
2.4996055667628476
0.012700794963231399
-0.2814217964769176
-0.5585050746414433
-0.4712212088552873
-0.8741961707479584
-0.4927897135216532
-0.22444749611279147
-0.46093242093864817
0.09109332801553582
0.1487309946298282
-0.07774341596345097
-0.11176857309364359
-0.17150907668491114
-0.05020005376856246
0.02166156404219821
0.7395715137962134
-0.5559594025048036
-1.0840614126724866
-0.5863140199676014
0.5683212921957416
0.6509623087914804
2.275952690314512
-0.3780816753928137
0.38465765778724376
2.2958177860203293
7.650815991353164
1.0714829194772495
2.444646766668984
5.8442819725977
5.904967804044285
0.07038524165654453
0.13051320889456305
1.7832979160977562
1.2312372498673896
0.35365497946976177
0.2747465019999935
-0.07479730112803445
-0.44615190096384943
-0.38772426438320484
0.5181695707219518
1.7675585157342895
0.7601558702446347
0.33003004109796685
1.2187520045967406
4.476880104887428
-0.35852671360574717
2.957239053299233
1.607882475844453
4.940990383014179
4.601206720032829
5.573433058839672
3.1183950061393335
-1.2101171673363953
0.44321633456476783
-0.7975045904135927
0.5591725887284794
-0.913971053417154
3.323543310454976
-0.10809373994826749
4.461306078220407
2.5844530529272958
2.9380660555414364
1.5703902348167067
2.3015519357384004
1.8792185249255606
1.4348537274327824
1.4879700976246975
3.6289857625097666
1.8106716674091636
2.3097407705394843
1.3200538070961203
1.5521464048874931
1.7875251092746285
2.2846410641463963
1.3601106596777863
2.0533343915092543
3.8547281206530464
2.7185019954196434
1.5926778751596666
2.286887628631151
0.23638367221269097
-0.27889282357414047
-0.19103665437774042
-0.2849331014852556
0.19987342808828057
1.1508553913820625
-0.12318018141708284
-0.7067992123268368
0.012364270083106532
-0.11729485821709015
-0.18783224336988844
-0.015975561106440002
1.3848461877046434
0.6352493728658188
3.4085006938870683
5.109079472019674
-0.08596658886747804
-0.2608155026137858
-0.2973437062248313
-0.5713103138643805
0.05374074859026135
2.886301342152175
1.8368174809982687
-0.031095064532661032
-0.5185797852682614
-0.6591399779993962
0.2244522873376531
1.4220776550276009
0.1292036360531793
0.854682319842651
5.109052598540826
6.5636086242244
6.571130993821443
1.6896160050056044
3.8649443669451116
1.4437705565345123
0.7229982202785784
0.017103985217922668
4.9547206941217565
3.1708209416644513
4.015567118779352
4.419890652432121
3.2397573172358785
4.225069697676094
4.799160338055217
1.5970008977430221
2.6948647822060985
4.535551603736158
0.685918764300508
2.4283402101320264
2.6613634494463954
0.22022315734733197
0.35039736944216493
0.8636479617468595
1.2268454131560615
1.9847777386035537
3.9088428139946925
6.485577559000709
8.176619395077479
-0.29637751251159755
-0.37410595187877993
0.12268149501163601
0.3319612823972432
-0.3734575098771016
0.3216058794448564
-0.18610394709332134
0.8143054273751525
0.7158258166016221
0.901360395846336
3.011056350028744
1.4380919681707214
-0.048530374645516794
0.3504879293657025
3.254105711012475
0.9750164547985556
3.396029274892638
1.1539238550030846
3.4683980333082305
1.2998141814208615
2.5852965082781982
2.1324556741949374
1.595072044603288
0.5997686490265267
0.69247377785746
-0.03183796604940919
-0.10139996786358549
-0.15973385402990678
-0.33720658966336725
-0.15121446404331948
-0.4315498591282167
-0.7464349960836205
1.493956517018304
0.3013936698795263
0.7745594919105806
1.0209816407633343
1.4133310124474228
0.1847800279282355
-0.14031285291335896
1.0879929774913435
-0.06636094632582754
0.00045992787618778785
-0.024012115399539846
-0.27700769657548474
0.7598664920320137
1.3658238115691477
1.1152938516296769
1.474829022314057
1.8695935242231452
0.30882921312414296
0.7797847247784322
0.9194946616537027
1.7817207129563855
-0.0671785127424776
2.260774915012822
1.6639742035362957
-0.40884854189666897
-0.01759056720067792
-0.03416771551327484
-0.3233481258672838
0.4269065959571567
1.154755135823394
-0.13662673466602437
0.5591853485987102
1.6465690591493276
0.05734829556900778
-0.07170590234514734
-0.27865567109364553
-0.0021022803526555695
0.3429352807286938
2.374431389077812
3.4966811349437843
-0.3356212160425975
-0.7004707880758752
-0.5027777435079086
-1.4584068224281745
0.37664689318680133
2.3017056865060237
0.6526440965110956
-1.5584017112463866
0.07295243614718727
1.2154090580056138
0.47775472355903
2.3383982201625955
1.4367749681239605
0.7505752310701393
3.0199691370595496
-0.8460186312001561
0.6999716062383216
2.40575213328325
1.4191812669684722
1.787559219810846
1.349710120590652
1.2857383437394025
3.7820754738133866
2.634730388789363
3.1875110490470817
0.4480065048517896
2.503589778322869
2.2168077697922475
-0.5573600032704584
-1.445445903978464
1.8760142453827025
0.703736776081649
1.0034909194645856
0.9203112034595746
-0.4822772776663769
0.007954127557660395
-0.46275318913875696
-0.4897920395611375
1.9948875869625926
0.5839032878116132
1.0990921392896675
1.231893962489157
0.9259848983967095
-0.027345933773044312
-0.3782941611547452
-0.2540320307114643
0.5852864997816258
-0.219350023561481
-0.4255001216291068
-0.7445473434531755
-0.8480425117621229
2.101915480579599
2.374087536169215
2.0072795196916444
2.1717414451459414
0.8468740043311376
0.44129786254103043
0.570083543891053
1.0369455039189446
-0.09397802794697868
0.03125318026567883
0.7063620207741778
0.610766798855902
0.7041988675179791
0.9173669402967043
-1.204516469266658
-0.5089961308053882
-1.8729182494617893
-0.9984819509441312
-0.5789997107391217
-1.9510117589321345
-1.8665715730980519
-3.9989613076499393
-5.599672454183254
-3.751410747424238
-1.132125905605477
-1.7437699649280831
-1.2839969269495604
2.4347599822452595
2.6091748177793486
1.5778245191902365
3.091313670655496
2.7682935657809202
4.107367881712091
5.042066491689972
3.4794859291585314
3.340892390616929
3.1456739887063616
2.9028294887223236
1.6464455440045298
1.5431933717172326
1.3912786256496859
1.4541888713939077
1.0609535551472293
0.6058320003135605
1.1397524500711826
2.1180093066920955
2.934028602647027
3.2405186006032536
2.4039186009907523
1.9563606469501307
2.8620383451080933
4.887891447616997
2.9671236067519264
0.5534167709093369
3.1727349958702815
1.700713421284026
-1.5181170910356063
-4.42544120645393
-3.492161549295222
-1.1598004678448353
-0.6965470879930863
-1.799321937199562
-1.0792555016104535
-0.6020286853777053
-1.4842299280252047
-2.6632160917228163
-2.4611560464783464
2.2916767583044337
0.6822544535532373
0.48681483143043336
3.28490661145222
0.11498661816737626
0.8285764244867904
0.25686129577616496
1.165890724218383
1.7232165276745808
0.16271883914093382
3.0704339764990434
1.0695913974707711
-0.7262174024861034
-0.1711279689267383
-1.1724314675460419
-1.2726313748113316
-0.10995908267199364
-0.7441826761908098
1.9897721930539554
2.222135058599336
0.26726824651140085
3.4035239224547964
3.761711200788426
-0.7578054443014417
-2.639084106958433
-0.3998434259794401
-0.3161099926297163
-1.9632197511580087
-4.364298573884617
0.023657851325818297
-3.4295654387457004
-4.437690009420771
-6.120415008140738
-5.474973869667441
-1.5769386066197528
0.09529594086888513
0.07277455481068446
-5.273055281361913
0.576011681850944
0.8833829454802111
2.5592125600982527
2.064779653338811
0.08947866921784009
-0.3217962398314741
0.5118009120981201
2.3912107781844214
1.2947159566665924
1.4339936633880792
1.1506724197788059
1.354252671247066
-0.5115237352656546
2.4804995249081623
3.857355127038403
3.687354687821718
4.18694616245684
3.1726114168511113
1.077327953766909
0.4116514682281478
1.094742939626387
0.34414907151655927
0.022493645580610344
0.2678638809233021
0.7028268890191324
2.9548860202502123
-0.4914560100471663
-2.771628416602155
-1.0770951511592535
-3.7384154474241615
-1.9423607453311211
-0.7735136692646454
-1.4764068808165411
-2.903988002890948
-0.8183825502371098
-0.879335314750628
-0.9067782712805736
-0.9502416008449146
2.4083046500197463
1.9197730095450576
-0.8718255399860451
0.49655021952853584
2.5217954416678054
1.0264240008481464
0.47475415899100465
0.1243836379095484
-0.1459957308017909
2.594335226105288
0.6262063291215973
0.98695058670879
0.2937037185075716
0.20974161003829433
-0.24351160204802147
0.15560085671775076
0.36781270707772074
2.454718397467066
1.420406269881676
2.038710827109377
2.470282962906521
2.170288646105746
1.2874984431334593
2.077184348065915
1.2972745238773
0.5191877935483923
1.5226156634603196
1.5455246189774037
2.036292928336062
2.021293694842004
1.2975374947871008
3.1540879028887825
2.3320563969210277
-0.30461455596319703
1.7231131099039496
1.2187842730218956
-0.3869466124586841
-0.10165601807901171
0.12441459052682417
0.20499379641289125
1.087487782072201
-1.187914865694362
1.5799735089733669
-1.2084561417225597
-0.9932059826798159
1.3374175594893272
0.38463866372103167
0.7741396780115746
-0.09936337161162236
0.07992300369418617
0.0006471575490876041
1.9237376933347066
-0.10260185672219102
0.3573814206288032
1.7615804916951756
2.4063492437949288
2.005228563956708
0.4725520562026185
0.2614269820747118
0.400594332124308
0.7910057815580231
2.7314535499332138
2.985935332780266
1.508861950093788
0.18215113592961324
-0.5857673258470305
-0.4499357014237603
-0.9613417538453455
1.678203218320716
1.5737697353610365
0.7334112650435971
3.2717888190732873
0.5664974114739497
2.750506614532882
0.8855736772509836
-0.17095226922881174
0.05901741340961453
0.16482986346758918
-0.009198176893373988
0.09661427316460067
0.18358461534739942
-0.06867971380452292
0.4224940115154109
0.8773270812988584
0.2229006674940517
-0.23068851560320536
-0.3016206982251131
-0.9661769379035668
0.37917382216688966
1.0241374122081661
1.51615748416542
1.3573105886414458
1.0892831210804998
1.523249401712016
0.7161646261374962
-0.4860145031429878
-0.453678047028665
-0.02830130255872214
2.920937346949855
2.145173359562397
-0.21352413815558935
-0.6383290224128653
-0.284748221290843
0.4577397911569796
-0.8154870710524896
-0.6220843039683039
-0.7340650235323503
-0.839998989036721
-0.4292212615750466
-0.3141248467828166
-0.15629925512903137
-0.17035521191604644
-0.4135245451861147
0.9545938790985992
0.2300870063780865
0.06637718324597032
0.7758406776524925
0.2028716204595657
-0.05810870161993791
0.6638845506805088
0.011277344107543052
0.08141904550793794
0.14852743699405235
-0.08298051254969456
-0.1626186619297334
0.742397315245195
0.16897168347491634
0.4522942701496767
1.559581049326285
-0.21963185204063143
-0.08296268400722642
-0.18146317442725587
-0.27137087997637654
0.951318519938466
-0.025735431365917827
0.2690175516878129
-0.4419990151979789
-0.23634657019834537
0.4955306102627969
0.21402587985261787
0.6393822261356927
1.963218614939291
-0.10933048084330893
0.4320704005501224
1.3768069859505982
-0.49798102807101424
-0.6818568872757422
-1.418921164879066
-1.1447993294815881
-0.6715094496588871
-1.129507144261093
-0.3919254127928861
-0.5758012719976142
-2.6033656506718734
-1.7267933477661854
-3.72470456513936
-3.12225409763115
-0.0549386114018775
-0.12496454849583248
-0.04888729693804651
-0.3161710172552262
-0.06257984838110195
0.131855828974926
-2.6659095456706643
-3.592101289048457
-0.3704498627812704
-1.9274693881674931
-0.33423281459299176
-1.0536094348437308
-0.16299396794302956
-2.775667778924054
-0.6226945392574733
-1.2300881380047772
-1.2240097910596224
-0.96585186103788
-0.7919195128973308
-1.349378094118795
-1.9654799699166763
-1.6269387780036868
-0.8429829010104111
-0.7022724058701809
-0.6029446421383101
-0.6516668701722695
-0.17777742285013293
0.1768510110354895
0.10632131251636276
-0.07437477322871039
-0.049499892005165386
-1.7903316381661516
-0.4219941266247058
0.4678996341115738
0.9797033980374561
-1.2145319819868186
-1.5173038171858404
-1.7545622814521846
0.21595413668603658
1.3338415246414108
1.4240080384050382
0.022194954310019027
0.037923750723043714
-0.17073460218140013
-0.29104032686629916
0.5993760330957041
0.6672744200792204
0.2243803983602224
0.11476425353336
-0.2490765633408695
0.11627172498682131
0.6251095477837263
1.7721496489191892
-0.20710074502146542
0.8248480310222911