# vtk DataFile Version 1.0
Tissue data
ASCII

DATASET POLYDATA
POINTS 1714 float
0.452351 -0.0199958 0.963117
0.343821 0.277085 0.984305
0.443372 0.0135488 0.976407
0.119416 0.487377 0.9597019999999999
0.417765 -0.0841853 0.985308
0.068008 0.509797 0.950658
0.351384 -0.226731 1.00473
0.103426 -0.485548 0.97211
0.347206 -0.124496 1.04663
0.37585 0.266151 0.967869
0.443955 0.154691 0.958213
0.350488 -0.19005 1.02305
0.247812 -0.316825 1.0335
0.234699 -0.350852 1.02089
0.453628 0.119423 0.959535
0.310239 -0.255693 1.02417
0.206338 -0.375239 1.02022
0.441038 0.0895471 0.978132
0.251473 0.377914 0.980439
0.325471 0.298738 0.9836509999999999
0.133068 -0.461086 0.981195
0.263615 0.340007 1.00155
0.412 0.242297 0.952614
0.275364 -0.289929 1.02979
0.402041 -0.136903 0.991406
0.455261 0.186498 0.93696
0.159729 0.447125 0.985406
0.284767 0.358032 0.969062
0.369768 -0.161168 1.01594
0.202397 0.441688 0.961789
0.413642 -0.11227 0.9850329999999999
0.424433 -0.0508816 0.983752
0.19875 -0.397254 1.0066
0.181182 -0.430657 0.986435
0.238862 0.415167 0.958936
0.315048 0.341586 0.959797
0.447375 0.0534179 0.975533
0.447627 0.219809 0.931535
0.33509 0.322807 0.960316
-0.274268 0.402638 0.940523
-0.313983 -0.351617 0.975606
-0.293084 -0.411096 0.955318
-0.443219 0.145002 0.915569
-0.383819 -0.313783 0.9291079999999999
-0.301914 0.392797 0.923484
-0.41353 0.231641 0.924759
-0.189414 0.435772 0.983337
-0.410547 -0.184419 0.942485
-0.398187 0.296285 0.912302
-0.298026 -0.377017 0.973665
-0.185804 -0.454869 0.986752
-0.247467 0.400324 0.968616
-0.222136 0.406039 0.985937
-0.144115 0.459696 0.989603
-0.43971 -0.161613 0.910579
-0.481571 -0.0177438 0.889024
-0.451393 0.0914712 0.917946
-0.455006 -0.123512 0.900026
-0.339324 -0.372845 0.93954
-0.225603 -0.412853 1.00211
-0.3246 0.356434 0.9310579999999999
-0.361974 -0.280396 0.970075
-0.381092 -0.335894 0.919133
-0.386306 -0.219058 0.965007
-0.254077 -0.419634 0.979022
-0.464667 0.0552536 0.9095219999999999
-0.469173 -0.0567252 0.897857
-0.473619 0.0246632 0.901477
-0.417331 0.268273 0.9073289999999999
-0.388113 -0.290548 0.935914
-0.453959 -0.0867083 0.909516
-0.378289 -0.253362 0.962446
-0.204568 -0.428131 1.00126
-0.360573 -0.223753 0.9919
-0.14146 -0.48033 0.981146
-0.369952 0.305476 0.930276
-0.368593 -0.364444 0.915042
-0.357273 0.335155 0.921395
-0.426109 0.185577 0.92536
-0.101683 -0.50668 0.970675
0.391797 0.145711 1.00175
0.282212 -0.213585 1.06645
0.204984 0.356862 1.03433
0.188874 0.381888 1.02679
0.397401 0.122316 1.00404
0.305174 -0.0857722 1.0865
0.328332 0.233888 1.01625
0.0816421 0.422571 1.04664
0.0971303 -0.423677 1.02873
0.292775 -0.156689 1.08151
0.348175 0.207312 1.01327
0.367317 0.0197638 1.04003
0.331001 -0.0624982 1.06953
0.128274 0.391264 1.05176
0.374051 0.0668332 1.03204
0.190896 -0.315409 1.06766
0.373118 0.205008 0.996231
0.244705 -0.221873 1.08708
0.307128 -0.176966 1.06447
0.402739 0.180505 0.982906
0.374012 -0.0243091 1.03364
0.362374 -0.0720105 1.0411
0.207443 0.328542 1.0498399999999999
0.296306 -0.128653 1.08577
0.284996 0.231324 1.04722
0.146756 0.374403 1.05427
0.158349 -0.340112 1.06608
0.22444 -0.257602 1.08125
0.242286 0.304866 1.04047
0.2187 -0.291683 1.0662
0.281522 0.281307 1.02513
0.113594 0.40835 1.04585
0.130565 -0.35715 1.06532
0.304613 0.243568 1.02773
0.122967 -0.389878 1.04476
0.394549 0.0921299 1.0128
-0.241399 0.336251 1.02049
-0.199768 -0.373384 1.04092
-0.363428 -0.120777 1.01334
-0.339795 0.205945 1.0003
-0.392948 0.118105 0.975954
-0.301417 -0.23239 1.0361
-0.304159 -0.288986 1.01497
-0.308487 0.294058 0.9829289999999999
-0.356025 0.136778 1.01114
-0.12457 -0.420472 1.0392
-0.324252 -0.196778 1.02935
-0.224727 -0.357589 1.03666
-0.272683 0.318349 1.00217
-0.425149 0.0510297 0.951472
-0.412334 0.0827183 0.959958
-0.414209 0.0177513 0.965949
-0.254311 -0.338502 1.02813
-0.185503 0.365931 1.04494
-0.355982 -0.172983 1.01026
-0.260239 -0.304864 1.04019
-0.399876 -0.0752506 0.978187
-0.171614 -0.360251 1.06307
-0.161086 -0.390914 1.04729
-0.397267 -0.110167 0.976531
-0.375389 -0.14901 0.995621
-0.212955 0.339779 1.0425
-0.31913 -0.222986 1.02578
-0.345315 0.26213 0.969912
-0.334702 -0.178632 1.02612
-0.352748 0.203112 0.990564
-0.151306 0.378434 1.05904
-0.302721 -0.250044 1.0299
-0.361601 0.228198 0.971835
-0.359202 0.171251 0.997569
-0.409642 -0.0470965 0.9704969999999999
-0.420524 -0.014259 0.960585
0.113118 0.184303 1.16149
0.0899377 -0.170033 1.17392
0.0524252 -0.167738 1.19344
0.13011 -0.134846 1.16386
0.0836117 0.210489 1.16364
0.134191 0.151899 1.16359
0.141062 -0.0574447 1.16876
0.190939 0.101463 1.15842
0.0577317 0.224681 1.16791
0.132167 -0.0949479 1.16822
0.163679 -0.00100989 1.1662
0.173121 0.145033 1.15161
0.166204 -0.0353287 1.1615
0.205741 0.0729046 1.1579
0.180753 0.0380272 1.16381
-0.176057 0.174482 1.16055
-0.225671 0.120406 1.13223
-0.244232 0.0633089 1.12614
-0.180171 -0.179505 1.1474199999999999
-0.215085 -0.119094 1.14249
-0.265485 0.0383763 1.10921
-0.257076 -0.0111529 1.11943
-0.230898 -0.0825281 1.13658
-0.186691 0.141639 1.1621299999999999
-0.185013 -0.132567 1.15832
-0.241036 -0.0496231 1.13173
-0.145064 0.1867 1.17797
-0.150934 -0.19247 1.15836
0.342438 -0.157839 1.0422
0.323243 -0.13899 1.06404
0.392777 -0.0612334 1.01311
0.195322 -0.349569 1.04394
0.240613 -0.298789 1.04885
0.0724488 0.466627 1.00796
0.259018 -0.2417 1.06805
0.224452 0.369095 1.0114
0.131496 -0.430722 1.0077099999999999
0.298328 0.314507 0.9926079999999999
0.418069 0.112234 0.99139
0.421884 0.206859 0.959345
0.117551 0.443189 1.01345
0.387032 0.227098 0.978128
0.391514 -0.0993246 1.00923
0.399106 -0.0361275 1.0095399999999999
0.318204 -0.21281 1.04046
0.0967158 -0.455932 1.0012
0.412588 -0.0122999 0.99984
0.218404 0.398139 0.991866
0.332561 -0.103229 1.06344
0.148552 0.409771 1.02847
0.431905 0.176218 0.962022
0.389454 0.00519849 1.02129
0.406484 0.0339834 1.00854
0.264552 0.31492 1.01843
0.370365 -0.1249 1.02511
0.28311 -0.249505 1.04714
0.352319 0.242778 0.996035
0.222761 -0.32212 1.04649
0.422694 0.141683 0.979727
0.167547 -0.372027 1.04011
0.18478 0.414983 1.00226
0.317194 0.272709 1.00517
0.41212 0.0688858 1.00334
0.160809 -0.402555 1.01888
0.249057 -0.272648 1.05759
0.234548 0.341263 1.02372
-0.283088 -0.350609 1.001
-0.333767 0.317548 0.949016
-0.377539 0.276042 0.938902
-0.25612 -0.362897 1.01368
-0.372341 0.192455 0.977165
-0.423928 -0.132953 0.9376369999999999
-0.216345 0.365434 1.02294
-0.381177 0.245586 0.948492
-0.104339 -0.464952 1.0095
-0.346125 -0.320656 0.9631649999999999
-0.281806 0.354045 0.970221
-0.424828 0.118739 0.940345
-0.200494 -0.398796 1.02395
-0.437013 -0.0635764 0.936735
-0.45054 -0.00370774 0.927894
-0.291799 -0.328701 1.00575
-0.446255 0.0295101 0.931377
-0.428995 -0.0983066 0.9394319999999999
-0.437937 -0.037235 0.940601
-0.337893 -0.268169 0.996932
-0.370971 -0.189936 0.990757
-0.144117 -0.452463 1.0061
-0.234943 0.376463 0.99943
-0.15666 0.41247 1.028
-0.385178 0.158385 0.975903
-0.169639 -0.42503 1.01874
-0.344546 0.288974 0.957444
-0.402869 -0.145259 0.962045
-0.344913 -0.203982 1.0113
-0.386578 -0.168318 0.977586
-0.246056 -0.390667 1.00348
-0.339173 -0.239936 1.00559
-0.20087 0.396649 1.01086
-0.414892 0.154901 0.944318
-0.437467 0.0675086 0.936207
-0.393827 0.201381 0.953188
0.452825 -0.426646 0.775633
0.460418 -0.377581 0.806976
0.655887 0.0677501 0.696716
0.307977 -0.562348 0.7778079999999999
0.333271 0.570207 0.752507
0.635132 0.141905 0.712568
0.284602 -0.606027 0.730778
0.146782 -0.67521 0.6899
0.456142 0.493065 0.7292649999999999
0.374091 0.533331 0.762412
0.153975 0.641687 0.751364
0.336185 -0.537024 0.787009
0.609998 0.294621 0.678409
0.12656 0.651987 0.7407779999999999
0.480795 0.472854 0.721885
0.603473 0.264244 0.710943
0.61824 0.23123 0.705516
0.478124 -0.352585 0.80403
0.62904 -0.0269017 0.750408
0.145937 -0.70288 0.644744
0.219342 -0.654588 0.698813
0.427308 0.512136 0.738931
0.605661 -0.119917 0.758891
0.163586 -0.688557 0.663489
0.634184 -0.0529917 0.736442
0.627171 0.197576 0.705465
0.113192 0.67236 0.710065
0.396957 0.51815 0.759601
0.216165 0.627292 0.751933
0.60736 -0.165167 0.743845
0.0858548 0.689413 0.6855559999999999
0.621083 -0.134452 0.73058
0.275995 0.621793 0.728251
0.570752 -0.224339 0.773461
0.515742 0.417918 0.726952
0.533805 -0.262141 0.797952
0.25307 -0.610047 0.748263
0.541609 0.382726 0.723232
0.295038 0.600544 0.742173
0.289041 -0.584741 0.759926
0.505395 -0.333469 0.784639
0.58217 -0.183953 0.774146
0.649006 0.0135002 0.717256
0.171635 -0.670802 0.689269
0.642062 0.108188 0.711278
0.624488 -0.0918326 0.740159
0.367291 -0.516132 0.7810469999999999
0.600002 0.329784 0.673902
0.181367 -0.652638 0.71599
0.401004 -0.479056 0.78259
0.317471 0.588844 0.74122
0.42118 -0.42975 0.810733
0.187961 0.633322 0.754888
0.420453 -0.445938 0.795864
0.350743 0.547711 0.765218
0.471752 -0.395101 0.779155
0.533289 -0.296694 0.77629
0.249049 0.620041 0.745353
0.627668 0.165367 0.717414
0.568079 0.342478 0.716925
0.230996 -0.627586 0.735551
0.504682 0.453021 0.711606
-0.63656 0.0242993 0.604954
-0.36112 0.533296 0.731515
-0.518645 -0.405739 0.622598
-0.235173 -0.676115 0.69437
-0.514832 -0.425852 0.59249
-0.16459 -0.709441 0.669438
-0.247399 0.595838 0.739062
-0.587457 0.260447 0.666597
-0.275641 0.58041 0.742945
-0.307546 -0.632954 0.702108
-0.532476 -0.373659 0.628239
-0.630694 0.054202 0.627633
-0.625328 0.00283808 0.644298
-0.627722 0.109102 0.626403
-0.444846 0.462252 0.716592
-0.552215 0.350869 0.663883
-0.452115 -0.508277 0.644127
-0.623417 -0.0390676 0.633927
-0.195143 -0.698235 0.67783
-0.562523 -0.253154 0.656266
-0.327686 0.561789 0.726499
-0.481904 -0.463858 0.631562
-0.619005 0.153674 0.64469
-0.526242 -0.351331 0.673251
-0.353802 0.558515 0.708224
-0.614322 -0.171351 0.56933
-0.165669 0.654513 0.7004859999999999
-0.188235 0.632127 0.72247
-0.0853536 -0.727406 0.650688
-0.420026 0.48244 0.724698
-0.596192 -0.227621 0.573843
-0.526539 0.406399 0.653699
-0.543031 0.386617 0.643296
-0.381964 0.520079 0.727302
-0.615425 -0.139053 0.597896
-0.236929 -0.658608 0.72346
[...]
CELL_DATA 3350
SCALARS gaussian_curvature float 1
LOOKUP_TABLE default
0.41261614007511493
1.1315890799476453
-0.5034419803176355
-0.29040723919204914
0.12576964859258877
-0.38016855015435536
0.41808895528791445
3.3990937169930495
2.921051581479543
-0.7403655462172133
-0.16358950926102742
-0.1976051994544008
-0.11902950545709706
-0.45666552113727077
-0.8074982606957749
-1.049894641808152
0.13568169225181556
3.5122337784474214
1.2546411850612442
0.048790230076352664
0.47524801828484925
0.7773890685845355
0.6221283382781446
0.2030816017066634
1.0244101199891311
0.6261353955632468
0.260766684625419
0.211177384616081
0.5569367799573692
1.3222301025809182
0.5575595307807615
1.8650893222386724
2.1256299796882794
1.459366281118239
-0.7942928205978482
-0.2739235854206049
-0.9855369803477884
0.05808195509385766
0.8451529095646558
-0.4798822327435403
-0.28448807115127506
-1.1281891467048712
-0.30651894343651775
-0.3829019258821787
-0.035819970384051936
-0.45234507563825255
2.8271285910233157
6.494265181279642
6.287202129369042
-0.721503622991185
-1.8914152024473572
-0.9278074795993022
0.7313428358842807
-0.6859775334301261
2.2556603061013907
0.22082828786770126
2.3621569803357225
-1.2816596127060405
-1.179781407653059
3.146747366703786
-1.5322102351987998
-1.507043546756952
2.0112202623347475
-1.0304630039870635
3.8910262947198335
-0.3367034296237137
2.3335824014817557
4.526480107591614
2.4318831732853097
9.751114652056222
2.508184906850376
8.8972766541443
5.545589786520216
3.9799499908513596
-2.053886299553917
-1.5514918494035475
-0.8748008679187622
-0.9133991330523279
-1.7355530522266864
-1.8710901569198841
-1.797084141999087
-1.305670483451104
-1.1198492077101772
-0.5092303349694929
-0.844339220506719
0.05693718008349438
-0.19959601145642783
-0.4840701289704409
-1.3036892980263555
-1.167835071714578
0.5037633750808643
0.31072522222913684
-0.39516129445110304
0.9530027975902058
0.5313368085918879
0.4091140017760541
-0.49255657171118183
1.6497925784748704
1.9874321002947402
-1.8459234684780363
2.8192273332872015
12.785118560387325
6.988758345987343
-1.6480673704496633
-1.4808625401253466
-1.7595869848668624
-0.037178715474564306
-1.4627901528896181
1.8771864242233254
1.2995695924298496
1.6044705883847863
1.1358326103242813
0.5988191645199404
0.4898403107869699
2.893108137016349
1.6860545582937645
2.4506115599756213
3.0800483069047306
1.5798786420209334
2.7365541860274822
1.1102353314482378
1.6193594456614553
0.8965870752593669
0.474519579968318
0.4593689037593206
0.34442295324602873
1.3498127116408773
1.135159122939816
0.44523763054807597
0.9871220877180795
0.5560344416152709
0.13008318213004522
-0.2108930986771841
0.00623805586905718
-0.23503866751099858
0.05893198655650306
-0.15932423288120207
0.5843695112832628
0.8690711887893329
0.41934809869236966
-0.1882239781351991
0.13790700765853753
-0.04033981944920639
0.03151622662929572
-0.36437946589280407
-0.22035369575810576
0.9831461542747308
-0.02279886218180099
0.29700275970763257
1.8894881996647428
1.479007383308902
2.100647751192844
0.8399236889545529
0.3618614855773572
0.21977757751754723
0.3789170464156273
1.6669213435594086
2.192853807072324
1.4615071348084956
3.872623888764611
2.045742560667444
4.048253642831889
3.1925034234815777
2.3500135501826165
0.6488214437033455
4.448407308969139
1.9920892339428629
4.323885906385505
5.726427956230665
5.426276799579753
4.027586491554215
3.3035691386985775
0.9861878190855965
2.178316879799999
2.4111119541635135
2.08337365784437
2.0556280747582774
1.386656684008031
0.5963519334304416
0.9256743639241245
1.7055418687411976
0.8863679770718486
-0.05244924753706659
1.5221010674532018
1.628793203822989
2.186733852235384
1.315089935484884
2.1883109336929407
1.7100321778056138
1.3565374392612957
4.791697980116654
4.922767282362272
1.8871721749610426
2.3233569984079443
1.1443504717164346
1.5160032242615364
0.913826607750664
0.89043132447984
1.6441176305547445
2.099067236198809
0.7373448685280215
-0.0487272250245559
0.3859670537057963
1.2564617190006806
1.3579780197939246
0.7457776745426704
2.8038209582168108
4.335590148630996
1.4197194729908105
0.6448859185986464
0.6939622164113861
0.2799614884365628
1.6759490633083716
2.404043065984819
1.0878820348462814
2.734819451531062
2.096870731641718
1.3312243611927868
0.5699792499118393
0.2633172213427104
0.3202040189724712
0.7427516572790609
0.08624297322131563
0.6161293109335998
1.8238133634570737
0.8219642958072038
2.526977458488467
1.690518165643161
0.9712301699194256
0.5115897865779382
2.7155395261764825
2.1186608792598993
2.0138097652160765
1.6718076671618567
1.814021985020085
0.646590034233022
1.1360966064131182
0.2525108276860881
-0.3973980287080404
0.8934932717603722
0.32551080972746316
4.909835613395041
1.5216863662157514
0.43086142365977254
1.32005348813188
0.9000142856338096
0.7803955466857372
1.4462567994613713
1.560638335457913
0.6546969854618896
1.3977821454262627
0.6155745472308091
0.814441315502293
0.5311695773740516
0.7479737542410538
-0.20085509915511984
-0.6456857690656742
0.2519274412400765
-0.6495793318247476
-0.20248441036156495
0.09419304180370475
-0.4535244312910136
-0.3713553665732432
-1.0760024308812173
2.1086046665424694
1.6544012460819588
-0.7333896972909003
0.7576114004946788
-0.20834105817925697
0.15810885286700807
-0.9712406718428044
0.1712978992445527
-0.6330487792678472
-1.7680225023903686
-2.3153420562800306
-2.745668715094578
3.564662489650332
4.289677786508899
5.310688437872161
2.267616417754134
3.985367653556601
1.1661070934455227
3.2949981217364863
1.5038608230869757
0.02322935801544196
-1.2804239976517313
-1.0705571431648893
-0.5387975073122205
-0.6321988347127674
-0.6950681960210832
-0.011498007159742765
0.10709572171862691
-0.5838588818377832
-0.8398781979350346
-0.04151621901782075
-0.2310639011476229
0.6799763326856815
2.0795262110368005
1.5050951776120205
1.5619676130213132
0.8324993913204739
0.7915786340698232
0.4751096677246137
0.4619378681086089
0.21311053917059045
-1.0884382871274418
-0.3941536514909644
-0.8425280017138819
-0.17113562787461592
0.08883085385174486
-0.3547345930654248
-0.5785651414960145
0.8141938675953271
0.9685119271284908
0.3010059003826212
1.1734713450820675
-2.199587866745212
-1.4202956598327963
5.027321354766744
3.8522901204277242
4.632865738165805
6.001120123226831
0.03378252858855524
0.023191362096248044
0.025827237900679423
-2.1391605328819363
-2.518393959812676
-1.8942337419136417
-1.9498011878112829
-1.3598683259695215
-0.6951745985308498
-0.569780656653198
-0.7609231845058624
0.08177253488241076
-0.3158039144472742
-0.47747143274361664
0.004500527026780887
0.5465399643523421
-0.33300844474774044
0.4207422187800145
-0.08910990482384279
-1.7218610502778386
-0.6032409783021103
-0.3749034753762525
-0.4940937784907238
0.7691626189536901
-0.031103184356172375
0.06496454182075809
-1.9079685693065886
-1.925022598798953
-0.26839691007161903
-0.07108131920435731
-1.2060552019699573
-2.017085070656761
-0.3270740386876233
-2.1141676384807915
-0.4071025770192895
1.5383623635999184
1.8776041801452383
3.4184113681866295
3.2764851425085713
-1.6892070623328963
1.1125123296587804
-1.4180510872937961
-0.12689722993448832
-0.902372409588656
-0.577151058152501
1.1590576357860605
-0.5305109793659596
0.050509579339531596
1.1867570214547738
-0.12341608003353764
-0.1670294648098503
1.7291244375440225
2.23635812839268
1.4206086538522262
2.2296887967315278
1.4338002069426663
1.2063252086003777
2.209335266407558
2.570148401593552
1.5859712422476124
2.08786771240222
1.5994669200148035
0.4911647771698484
1.4902143714884228
1.0835697237496897
1.7452760072952824
2.354772853594201
0.8454899651465511
4.8927512608911305
1.2248323877677167
4.927869987704081
0.17205629906368253
1.6404606122651986
0.9038741426424756
1.0077715950023454
3.647537481603418
3.4483597357524474
2.478021803421825
4.33539162702916
5.681840646443706
6.851975481060779
3.363234394431301
3.5188231275784725
2.58349376501866
3.0438384283442783
2.730100329157793
3.0648405241003966
2.248321275394292
2.4296892229987233
0.08928459091008045
0.07543008442345112
-0.5894589077797159
-0.31169587098517526
-0.4441983274149081
-0.1525807841337381
-0.3209466279291891
0.19203198396226145
0.3984066778637693
0.9252397962418492
-0.2729937142427508
-0.18654461331977557
-0.3229953040117244
-0.13168136814015893
-0.31192569220551764
0.41477072017071703
-0.3086431876019698
-0.4168972120516738
-0.3979439717775458
0.8198689311905771
0.7389630670930256
2.5157798923313734
-0.12187990210623037
0.6533081611932967
2.4540733801195236
5.838319552425578
1.0333687687992719
2.009390639499682
4.774492889721538
4.925741697336382
-0.0663213041840352
0.13406459841671672
1.3270168645999612
1.516352193200707
-0.02425733781850258
0.17599631217215506
-0.1917178980648953
-0.6430071759649763
-0.7396984057788147
0.6060343558657624
1.6675967922017425
1.3075489058824705
0.8495253762517068
1.8077620003824926
4.244881175643871
-0.015356502235019748
2.9485957914044394
2.012639555685639
4.3934008926727195
4.789800200478782
5.584263237193106
3.2242498049094888
-1.0529429250860716
0.3956004191692918
-0.8468635589849063
0.16163288256845382
-1.03011016062438
3.00758379226975
0.3752986010932247
3.620051458742987
3.0731283105084293
3.388102832981872
0.8758625016955324
2.2918930061253873
1.7480654065218073
2.0770527486559898
2.2029024626692784
3.5468314321004915
2.765104210968925
1.7333430204423328
1.144608350231103
3.59240004518755
1.3186856860465583
5.819310873205186
0.7070226532373023
3.619060955919215
3.5726564667053897
2.669573624638079
2.1782654046460763
2.2802540424487283
0.5648249497301735
-0.10508174646481647
-0.08956083976502824
-0.13852026395473738
0.5332213159191054
0.9043651706142317
-0.0029878619557352493
-0.10701737730265289
0.14767334771511587
-0.10671376910974173
-0.17353069674239038
-0.11864530054059907
1.6993612256289774
0.9748740000222426
3.348111592896432
4.443742673198293
0.1298515771607961
-0.13632673536959858
0.013665633091646243
0.9436626964042978
1.2036105522245426
3.0108666288915646
2.8954067928886436
0.07964833449456396
-0.34302008441239595
-0.3760346648452949
0.7421822198819623
1.249940782719102
0.17606349224336498
0.8223558977090675
4.811568581527068
6.491155416949018
6.636390193123159
1.2459711696593967
4.137156260723307
1.2639434088930135
0.05234515325105327
-0.39283634790523686
4.947973758626722
2.904109662830242
3.3952228223737237
3.7031422444739546
4.084070527898926
4.859477950263054
4.878574582060133
1.691648934898153
1.9595820623804854
4.125444453835907
0.6236535346777721
2.6928170741257107
2.9329052288126207
1.4704156113737863
1.2555609031695822
1.7148069527323542
1.7400403992150597
1.8456718979647229
3.598567232555632
5.358104977254001
6.870912157158
0.8254016049444369
0.34018128839663886
1.14879908125087
1.70271400839682
0.7137593461667694
0.8893044089091781
0.5447278383059942
0.8066909598485272
0.8283335921863387
1.1332549045331644
2.603630211782568
1.331182713357661
0.3097081020880893
0.6183022221791369
2.876460143172332
1.0528643494832168
3.1355795573412664
0.653837681549984
3.357224776179119
4.978792945670807
8.09688686451073
7.507761706240988
6.71958197853555
0.9404335017441545
2.4185704029752975
-0.17502854967735193
-0.05277622802200117
-0.14605589124545743
-0.32491236886686425
-0.25840298852030397
-0.4037164506765326
-0.5168225892097853
1.7586441146130383
0.903289120431097
1.2652205393385616
1.4569634708951011
1.8963998661096493
0.9686928659474673
0.6491784029250143
1.220143761159948
0.22689341094459894
0.10417476858076251
0.18219842245660442
-0.18121934272935844
0.9482143472889731
1.7866701593188257
0.9365294391486919
1.5832423196220047
2.049188357491455
0.623526569346326
1.09332125277772
1.0129656726910312
1.704254517525927
0.46334512589003685
2.3014832772755796
1.466428848794425
0.08029730483709202
0.1577285436419203
0.09419518561142853
-0.12359221345765098
0.24214267923028446
1.1169099679966394
-0.2722549123652783
0.4092163407330347
1.9306965099727025
-0.0199707033394895
-0.05367731264562922
-0.3342103603431204
-0.0817209840579756
0.2697453265358275
2.717427872882045
3.6133606143661607
-0.1226504479631991
-0.2729479525149758
-0.05308136411253303
-1.1902589678941717
0.5519500396699187
2.1415030755934374
0.46580344837590704
-1.296796601582886
0.42449408095662966
0.9404686598849148
0.3100720126581077
1.9783081790986805
0.9120886109033142
0.8910906410261725
2.5566620099179467
-1.6801406863816748
1.7477189648567506
3.1955377767973516
1.7337217717045807
1.6243351287453296
1.0407551733950726
0.9068117255192143
3.895255305449795
3.2611950769934537
3.274141175199391
0.4723706470088375
2.3115456791253495
2.4753748799927164
-0.1752771705640891
-1.249153692341876
1.5803427569184991
0.5774756275216469
0.9608899422812303
0.8730902036100405
0.7166792307408278
0.6370247373925557
0.24092024152745467
0.2849003422259211
2.2247385508009616
2.652905848457543
2.1837853043430413
2.854760585599717
3.877796056860169
3.0492265595768266
1.2644460257317105
0.3989442754908931
1.250566409025324
0.11815507571044782
-0.16618680865687888
-1.7145798579611615
-1.620901535893067
2.010991042821492
2.208412103588928
1.928087616120675
2.671524022993947
2.3844512077984508
0.49616636505254924
0.9590758825690002
4.316306696627398
4.103952309408442
3.7714180251387246
3.8737919689607954
2.551296423257811
2.641814685675131
3.05081263867862
-2.1838721616129972
-0.9661474318800795
-2.8754255248018286
-2.2105410827525853
-1.0216880530849433
-3.503549413951476
-3.2149880885721234
-5.072116515234455
-5.872072560360049
-4.616399101707776
-1.6595366892046732
-2.4634896526593186
-2.507712585751205
2.122611509653925
2.411455582078446
1.673687962839491
3.021824044853881
2.9011491203074353
3.960441129897304
4.3817652728211485
3.254869867596174
3.287673661237796
4.381613290818539
3.926727556043103
2.9878624330636874
2.4666414312325284
1.9152178768638322
2.246269050702768
1.9881534586782894
1.1852760300892136
1.904117596983114
3.158010293473015
3.019801624645989
3.1679158608298468
2.35827090284881
2.102093863200616
2.895173248422674
4.478928515660289
3.17901289820528
1.3384955344385734
3.1047390839619786
2.3577063279589145
-0.504317460011545
-2.2886835150470164
-1.1527071160271285
-1.3362166993059712
-0.8141679855824022
-1.9447755011683516
-0.7530916743348203
-0.5268236292113626
-1.6598498531264083
-1.5305866885021808
-1.6397035249684517
2.446012102572554
0.09058404017733872
1.700823662021211
4.3170810456721
-0.10470823650872706
3.0303837743382624
1.219613703245608
2.744466092248725
2.1636498266614494
0.09728860687583814
9.70874838790961
4.649216752932738
-0.24645289495692058
0.488795434179766
-0.45864281968564
-1.3461447319697037
2.3059765189123165
1.107142589975668
6.2580087746806905
6.995361753261274
1.9271726479225062
3.507723896502699
3.680744108732733
-1.734387931909808
-3.2492182483502514
-0.8797668266560366
-0.4910608519037908
-1.8969045507499507
-4.673182360583595
0.25104461355388774
-2.3928430912770233
-4.037866956711883
-4.002030939523756
-3.7961373640443163
-0.6541746031790026
0.339357969365928
0.07098193634324719
-4.766620348116478
1.235039434569138
1.3819554343236788
2.9705805681781303
2.8066182408903515
0.4389531566314045
-0.4019445188394289
1.1683960040550014
2.9468272133129467
1.8447748483404016
1.7994185278512256
1.85989486244614
2.049700937849633
-0.304062786681416
2.9823859165771553
3.8442736884349373
3.501426892445322
3.8834439502916034
3.4541661907345174
1.3974030731859768
0.4999152586492792
1.8251796020376867
1.0735777140957383
1.02510925321228
1.0848780101924351
1.4174236305992425
3.3709634512009385
-0.2578482784501478
-1.3454780542892633
-0.2990076893606878
-1.821234959313673
-0.932865110481638
-0.5662250419234993
-0.4926208875272264
-1.3653593725282058
0.11993599508574504
-1.0257903503645576
-0.883461060593903
-1.0026311723815948
2.8032924876621133
2.521318288908245
0.36196996746225885
0.6528543740886151
2.552586757122291
1.2861768449336821
0.8284873953462872
0.13011457310300856
-0.733042391242165
2.5187485353834225
0.8091430883737696
0.9698367846420557
0.5815534052910147
0.25334552231256297
-0.20456663594389557
0.21962389314733496
0.4410283931313269
2.008122076318902
2.0839097876002324
2.643591322426998
1.7733480719464683
1.2879200793001377
1.8254655676040126
2.087774318659012
1.3644040547596716
0.6542890533677643
1.2700705465414392
0.9490275471458873
2.7799994979553757
1.9508227362949064
2.487818570551263
2.7123430618992925
2.3314982615652298
0.24019308787224553
2.8631737213047757
0.976080978524986
0.10784168808413853
0.16652008901258478
0.050573716171539836
0.3415924990254321
0.38547565380039245
-0.36513120812406497
1.929230932909268
-0.7374724537947634
-0.8083712260547409
0.6780924451141264
-0.26887853851369026
0.06344736781678043
-0.8461494388739236
-0.5285049592198598
-0.5658791361569725
1.4261979553231674
-0.3125647201367141
0.08303996084329696
1.3176802171217639
1.9641128611156837
1.4579855220197415
-0.21282784587836415
-0.0895404067883265
-0.021134668828651004
0.17322237173537505
1.723461389574687
1.6236621380184415
0.5517307457042311
-0.12691458372543912
-1.2052366853368581
-0.9754706724120488
-1.219635475503226
1.394456634040631
1.411932554340011
0.6959961876858995
2.387369953867987
0.7154025537363637
2.142480272317034
1.186449238839522
-0.000847690048524169
-0.02160560439742676
0.04198564678176271
-0.4309283486766092
-0.3673370974974197
0.16992776555083575
0.10614557015596304
-0.28659419062745917
0.4726644073330264
-0.12876329801686612
-1.1483110698086754
-0.7809485369750151
-1.6981769188444924
0.20919371988196125
0.5471740683488201
0.7765202698590763
0.9456064582209166
1.1542329445377892
1.4939537493174002
-0.1597062703379336
-1.2831602405267915
-0.9597159055338879
-0.2863671070397068
1.6732594604345847
1.5281690304398774
0.8883092278602993
1.8326869610814298
0.8989444255051764
0.2038627381683002
2.68269304316276
3.169177857644656
0.8392267864978636
1.6785976709343167
-0.14946902779632631
-0.26481485487514783
-0.20911240797120356
-0.5697189371546025
-0.93734603645796
0.9932690402119817
0.2160778736801615
0.02109815545215024
0.7946698072216312
0.21510595308526448
0.05666196800860941
0.6780196092538103
0.03286040624785191
0.09160784311150888
0.30941720250538063
0.07424595303325017
0.008650604163658503
0.6700712767691999
0.10850422948548562
1.2435230778268251
4.437684479648039
0.017587823365903893
0.918382288143557
0.2540140809663499
-0.13478934579519125
0.8696183762765836
-0.6708038436198139
0.18763652941787456
-0.0877619819497534
-0.09467892989089881
0.8552705085869174
0.1402855862900445
0.6002568340098607
6.351717235819714
0.9027048064234888
1.9609977486461467
4.291202598139861
0.8126580842087247
0.3284894030151326
-0.30447431182663626
-0.7331604518151342
0.052048730914814365
-0.003433810290279629
0.1002008356516706
-0.3839678455419215
-1.4936871563999872
-1.914691910477998
-3.220339983685183
-3.2126585977746958
1.019737537361447
-0.49923136880427493
0.16587835843029275
-0.031567401476580784
0.019783942613540665
0.9929593289088541
-0.863268108043742
-1.9805602956570778
0.1928073602860032
-3.5152982560304125
1.5210792015456391
-1.319629967406396
1.2697521293449714
-0.8802947271806162
0.9472283770194788
-1.3107002892074862
-0.13290944738084853
-1.6962214313994544
-2.1703596149308875
-1.6474474419218699
-2.2217762599357185
-1.381084404632865
-2.4586846119770875
-0.05955527147851061
4.282684457336112
3.879482120288217
-0.49036473489562993
-1.2789227024454652
-0.5703065759392233
-0.25588679192082114
-0.3172926392037959
-1.8216939332030306
-0.7300149037884978
0.21973081982992904
0.34402892604417856
0.8658436877436594
-0.251135536441633
-2.09798130208547
-1.9121627893841515
-1.0609353474371939
-1.4058504373296805
-0.9996841794411325
6.354189370861402
4.185523558520966
5.143507888245479
9.85896887848242
11.18331524963494
8.774864885749874
0.4564585306375677
2.6606132065574517
-0.2738907993975947
-0.4249298282665076
-0.5033582497998649
0.04952039939383543
0.8203556556661145
0.41566729225521204
-0.09503901057192829
1.5115710836790752
2.687778493962945
-2.8924319778920293
-0.9321819361079341
-1.7469630811581784