# vtk DataFile Version 1.0
Tissue data
ASCII

DATASET POLYDATA
POINTS 1714 float
0.451261 -0.0207973 0.962502
0.340133 0.279352 0.981147
0.442291 0.0131931 0.975154
0.108446 0.48686 0.955653
0.416589 -0.0859607 0.982834
0.0563159 0.50833 0.947114
0.347778 -0.229723 1.000076
0.0916865 -0.485719 0.969596
0.345043 -0.126648 1.0395699999999999
0.372427 0.268488 0.966325
0.442032 0.156094 0.958179
0.347421 -0.192769 1.01742
0.241367 -0.319032 1.02585
0.22735 -0.352993 1.01428
0.451967 0.120369 0.959602
0.30572 -0.258483 1.01778
0.198059 -0.376834 1.0135
0.439646 0.0900949 0.977069
0.244691 0.379762 0.9757979999999999
0.32125 0.301037 0.980103
0.122287 -0.461674 0.977584
0.257828 0.341767 0.995654
0.408907 0.244553 0.952522
0.269854 -0.292487 1.02256
0.400159 -0.139361 0.988408
0.452858 0.18832 0.9382159999999999
0.149942 0.44701 0.979859
0.278959 0.360352 0.9655239999999999
0.367369 -0.163774 1.01105
0.193373 0.442892 0.958077
0.412138 -0.114432 0.982544
0.423491 -0.0521635 0.981478
0.190045 -0.398799 1.00096
0.171584 -0.432163 0.982321
0.231035 0.417055 0.95567
0.309887 0.344142 0.9573889999999999
0.446111 0.0535514 0.974622
0.444745 0.22199 0.933033
0.330435 0.325374 0.958322
-0.261271 0.404355 0.939332
-0.303162 -0.352642 0.972861
-0.281197 -0.411838 0.954167
-0.438837 0.147782 0.918067
-0.375551 -0.31567 0.930221
-0.289778 0.395104 0.923607
-0.406723 0.23493 0.926555
-0.173597 0.434932 0.979279
-0.405499 -0.186028 0.942199
-0.38956 0.299738 0.914824
-0.286582 -0.377788 0.971059
-0.171903 -0.453835 0.982453
-0.233592 0.401257 0.965446
-0.207455 0.406074 0.981558
-0.127273 0.457558 0.985281
-0.436009 -0.162959 0.91271
-0.47944 -0.0169633 0.893647
-0.447845 0.0935575 0.920493
-0.452219 -0.12438 0.903083
-0.328946 -0.374301 0.939638
-0.21221 -0.41248 0.997041
-0.313604 0.359047 0.930873
-0.353403 -0.281988 0.96802
-0.372492 -0.337797 0.920891
-0.379633 -0.220781 0.963224
-0.24116 -0.419746 0.975997
-0.461674 0.0569447 0.912884
-0.466906 -0.0565652 0.90149
-0.471025 0.0259526 0.905439
-0.409711 0.271859 0.910446
-0.380386 -0.292392 0.936453
-0.45133 -0.0870557 0.912031
-0.370723 -0.255123 0.960896
-0.190829 -0.427385 0.996047
-0.352847 -0.22536 0.987953
-0.126912 -0.478749 0.97705
-0.360718 0.308571 0.931075
-0.359195 -0.366281 0.916992
-0.347265 0.338173 0.922445
-0.420619 0.188634 0.927081
-0.0865498 -0.5045 0.967724
0.390387 0.146917 0.9985499999999999
0.278001 -0.215779 1.05674
0.197753 0.357291 1.02548
0.180794 0.381985 1.0184
0.396215 0.123211 1.0008299999999999
0.302946 -0.0874055 1.07571
0.325402 0.235704 1.01087
0.0709172 0.419638 1.0357399999999999
0.0864596 -0.422748 1.02054
0.289402 -0.158751 1.07096
0.345822 0.209051 1.00853
0.366536 0.0192147 1.03385
0.329304 -0.0640046 1.06056
0.119033 0.389637 1.04072
0.373263 0.0669114 1.02674
0.183413 -0.316414 1.05633
0.370847 0.206826 0.992999
0.239768 -0.223673 1.0749
0.303739 -0.179207 1.05546
0.400765 0.18213 0.9809289999999999
0.373122 -0.0253989 1.02779
0.36102 -0.0736557 1.03457
0.20095 0.328999 1.03969
0.293371 -0.130562 1.07494
0.281758 0.232649 1.03868
0.138263 0.373284 1.04311
0.149929 -0.340336 1.05425
0.218605 -0.259212 1.06911
0.236919 0.306013 1.03155
0.212195 -0.293277 1.05535
0.277253 0.283006 1.01804
0.103743 0.406324 1.03525
0.121409 -0.356573 1.0531
0.301365 0.245253 1.021
0.113488 -0.389276 1.03474
0.393546 0.0926467 1.00911
-0.228101 0.336666 1.01308
-0.185947 -0.372448 1.03217
-0.357315 -0.121925 1.00756
-0.331939 0.208013 0.9953569999999999
-0.387779 0.120025 0.973545
-0.291977 -0.233512 1.02761
-0.293855 -0.29005 1.00875
-0.29838 0.296187 0.978707
-0.349492 0.13843 1.00564
-0.109601 -0.41817 1.03
-0.316015 -0.198024 1.02169
-0.21166 -0.357139 1.02839
-0.260864 0.319761 0.996206
-0.421436 0.0523231 0.951259
-0.408133 0.0843663 0.95889
-0.410381 0.0184894 0.964512
-0.242106 -0.33872 1.02063
-0.169813 0.364344 1.03551
-0.348946 -0.174267 1.00469
-0.248504 -0.305337 1.0314
-0.395517 -0.0757902 0.975415
-0.157116 -0.358616 1.05183
-0.146611 -0.389218 1.03756
-0.392522 -0.111129 0.973818
-0.369339 -0.150316 0.991331
-0.19848 0.339166 1.03315
-0.31033 -0.224264 1.01844
-0.336684 0.264706 0.967351
-0.327027 -0.179919 1.01888
-0.345289 0.205362 0.986614
-0.134324 0.375437 1.04848
-0.293026 -0.251173 1.02211
-0.353961 0.230777 0.969431
-0.352319 0.173257 0.993246
-0.405685 -0.0472337 0.968533
-0.416861 -0.0139171 0.95961
0.108101 0.182073 1.13723
0.0831553 -0.169197 1.14597
0.0452604 -0.164913 1.16143
0.125075 -0.135199 1.13853
0.0776722 0.207747 1.1381
0.129924 0.150515 1.13983
0.1378 -0.0583594 1.1426399999999999
0.187322 0.100483 1.13868
0.0511806 0.220952 1.14136
0.128142 -0.0955605 1.14186
0.160817 -0.0021332 1.14235
0.169256 0.144177 1.13127
0.163358 -0.0363382 1.13797
0.202284 0.0720097 1.13896
0.177707 0.0370497 1.14206
-0.159967 0.172058 1.1367099999999999
-0.213324 0.119915 1.11235
-0.233444 0.0629216 1.10715
-0.165975 -0.178642 1.1248799999999999
-0.202515 -0.119417 1.12125
-0.256049 0.0381246 1.0925799999999999
-0.247163 -0.0116973 1.10161
-0.219359 -0.0830917 1.11631
-0.17146 0.13985 1.13801
-0.171056 -0.132355 1.13413
-0.230141 -0.0502569 1.11221
-0.127343 0.182612 1.15118
-0.135696 -0.19051 1.13353
0.339756 -0.160282 1.03532
0.320532 -0.141109 1.05542
0.391781 -0.0627324 1.00872
0.187342 -0.350808 1.03494
0.234401 -0.300813 1.03979
0.0612512 0.463926 1.00029
0.254044 -0.243765 1.05771
0.217248 0.370188 1.00443
0.121313 -0.430951 1.00151
0.293558 0.316651 0.987937
0.416756 0.113004 0.9892299999999999
0.419361 0.208786 0.958975
0.107159 0.441564 1.00558
0.384319 0.229142 0.976204
0.390123 -0.101323 1.00506
0.39829 -0.0372526 1.00548
0.314494 -0.21536 1.03319
0.0855131 -0.455456 0.996014
0.411793 -0.0130696 0.996622
0.210521 0.39929 0.986254
0.330446 -0.10511 1.05498
0.139204 0.408788 1.01966
0.42977 0.177833 0.961647
0.388694 0.00454464 1.01658
0.40562 0.0337569 1.00505
0.259293 0.316552 1.01145
0.368467 -0.127151 1.01973
0.278412 -0.25194 1.03878
0.349314 0.244827 0.9924149999999999
0.21575 -0.323889 1.03756
0.421081 0.14285 0.9782339999999999
0.158839 -0.3726 1.03105
0.175924 0.415222 0.995742
0.313445 0.27473 1.00018
0.411093 0.0691304 1.00042
0.151599 -0.403228 1.01172
0.243461 -0.274741 1.04786
0.228197 0.342434 1.01593
-0.271424 -0.351319 0.996032
-0.323768 0.320213 0.947742
-0.369099 0.27912 0.939227
-0.243733 -0.363037 1.00761
-0.365519 0.194876 0.974584
-0.420033 -0.134039 0.937829
-0.201654 0.365058 1.01553
-0.373517 0.248569 0.948153
-0.0895553 -0.462522 1.0030999999999999
-0.33664 -0.322163 0.961461
-0.269748 0.355789 0.96685
-0.42052 0.120993 0.940854
-0.18675 -0.397982 1.01678
-0.433831 -0.0637325 0.937392
-0.447576 -0.00297876 0.929678
-0.280651 -0.329564 1.00032
-0.443098 0.0306782 0.932923
-0.425503 -0.0989505 0.939637
-0.434729 -0.0370273 0.941184
-0.32879 -0.269557 0.992521
-0.364139 -0.191424 0.9869
-0.129626 -0.45071 0.9999899999999999
-0.220892 0.376777 0.993954
-0.139824 0.410036 1.0204199999999999
-0.379177 0.160647 0.973567
-0.155336 -0.423639 1.01175
-0.335325 0.291658 0.955824
-0.398031 -0.14656 0.9603389999999999
-0.337084 -0.205365 1.00555
-0.380731 -0.169752 0.974719
-0.233238 -0.390601 0.998344
-0.330554 -0.241366 1.00037
-0.185451 0.395878 1.00456
-0.409764 0.157504 0.944556
-0.433914 0.0691204 0.937263
-0.387369 0.204181 0.952649
0.443806 -0.430874 0.784293
0.452761 -0.381669 0.813778
0.653491 0.068373 0.712554
0.295347 -0.566359 0.787413
0.321274 0.573504 0.762993
0.632565 0.143646 0.727364
0.27048 -0.610228 0.743105
0.129645 -0.679276 0.704982
0.446958 0.497578 0.742495
0.363446 0.537101 0.77278
0.13874 0.642918 0.759782
0.324311 -0.541071 0.796027
0.605983 0.298549 0.695225
0.110683 0.653085 0.749269
0.472256 0.477527 0.735778
0.599722 0.267627 0.725775
0.614935 0.234253 0.720745
0.471039 -0.356566 0.810994
0.626228 -0.0276883 0.762797
0.126844 -0.707075 0.6622129999999999
0.2034 -0.658838 0.713382
0.417489 0.51642 0.751318
0.602175 -0.121917 0.769881
0.145704 -0.692791 0.679932
0.631196 -0.0541217 0.749412
0.624238 0.200152 0.72066
0.0957368 0.673302 0.719907
0.386848 0.522129 0.770404
0.201759 0.628989 0.761178
0.603139 -0.167751 0.755564
0.0686504 0.690595 0.695869
0.617272 -0.136621 0.74316
0.262026 0.624225 0.739555
0.56579 -0.22754 0.783095
0.5088 0.422501 0.74069
0.528498 -0.265633 0.8057489999999999
0.238893 -0.614088 0.759814
0.535575 0.38719 0.737335
0.281819 0.603277 0.752839
0.27571 -0.588784 0.77055
0.498579 -0.337363 0.792677
0.577882 -0.186779 0.784022
0.646381 0.0132948 0.731762
0.15484 -0.675014 0.704279
0.639608 0.109433 0.726167
0.621185 -0.0934769 0.752512
0.355954 -0.520287 0.790139
0.59532 0.334129 0.691106
0.165541 -0.656753 0.729588
0.390697 -0.483282 0.791118
0.304785 0.591916 0.752179
0.412243 -0.433879 0.817539
0.17323 0.634783 0.763631
0.411058 -0.450095 0.8034979999999999
0.339553 0.551226 0.775147
0.463498 -0.399243 0.787504
0.527138 -0.30036 0.785012
0.235022 0.622113 0.75531
0.624955 0.167467 0.7318749999999999
0.562937 0.346687 0.731503
0.216186 -0.631676 0.747961
0.496775 0.457799 0.726306
-0.641564 0.0268694 0.628746
-0.347368 0.536949 0.744288
-0.516925 -0.409132 0.642844
-0.220378 -0.676222 0.709506
-0.513637 -0.429485 0.614303
-0.14883 -0.709406 0.685202
-0.23113 0.598277 0.750705
-0.585036 0.265868 0.686252
-0.260027 0.583068 0.754401
-0.294026 -0.633671 0.717012
-0.531536 -0.37692 0.648311
-0.634372 0.0572966 0.6500239999999999
-0.628831 0.00486691 0.665566
-0.630534 0.112947 0.648911
-0.434014 0.466999 0.730874
-0.546845 0.3568 0.683014
-0.445698 -0.511248 0.662664
-0.627554 -0.0377553 0.655355
-0.179721 -0.698272 0.693549
-0.564032 -0.255281 0.674822
-0.313053 0.565026 0.739335
-0.477704 -0.467142 0.650846
-0.620209 0.158064 0.666208
-0.524393 -0.354279 0.690698
-0.339521 0.562105 0.722343
-0.621025 -0.172547 0.594091
-0.147444 0.656463 0.714247
-0.170785 0.634104 0.734994
-0.0691911 -0.727779 0.665453
-0.408298 0.486868 0.73829
-0.601879 -0.229518 0.597766
-0.51939 0.412435 0.67297
-0.537019 0.392748 0.663498
-0.368792 0.523963 0.740512
[...]
CELL_DATA 3350
SCALARS gaussian_curvature float 1
LOOKUP_TABLE default
0.4953552246614608
1.2367120018437845
-0.4620068132976082
-0.25438117084842277
0.2200142673754485
-0.31371686735768956
0.5904642700845979
3.5714882291778896
3.1422290990075292
-0.6746635796373297
-0.1521137214583892
-0.14522848605067148
-0.14030959590693837
-0.3603264188022034
-0.6209802577182124
-0.9287460694810711
0.28108385264946484
3.7168989647042125
1.4431923226441234
0.12314497708093422
0.5090496489792321
0.8436440440278223
0.7170041520265571
0.3412118928619496
1.367231359745583
0.8966620463273155
0.5410532138972083
0.4298676210270928
0.8953901639708309
1.6322845016831427
0.7692406193201438
2.108628220447782
2.3388073883196645
1.697758848025937
-0.5523335018054872
-0.10170253388251646
-0.7618033306888606
0.3617124579298568
1.0894136980304452
-0.2615910116430131
-0.12104323950622024
-0.8878316457445603
-0.09147384856181746
-0.21034784201162288
0.11699011021202566
-0.28715861769041184
3.1568450464024473
6.739559679961932
6.608764891830528
-0.3817241882199588
-1.6052797325465302
-0.6749102329987386
0.9665535585831897
-0.33304950937598576
2.369223785352587
0.5116659836543609
2.3881192018444564
-0.9357271530719621
-0.8016707529269131
3.575549855671777
-1.1055221721628876
-1.0500953735454157
2.650820226460923
-0.5731317177442744
3.884205459041457
-0.022327371068511848
2.6023773262440124
4.651352354655755
2.3329675665560945
10.74375496683247
2.044998006591097
9.168020865888076
5.422574268010997
3.852440959033765
-1.7315481268394572
-1.1766788960868164
-0.6156863433605133
-0.6186282125759048
-1.433231955049887
-1.5023669606985504
-1.5257152716791433
-0.9643196980028701
-0.8053344864399008
-0.38531779971235536
-0.7329911725840605
0.17494820106334774
-0.1678062816646243
-0.26836909029563627
-1.0548975441509192
-0.8886699646679359
0.7094259156865383
0.5003705933763553
-0.2492050539983673
1.2026060415406667
0.7850770363341952
0.47157490446441863
-0.24024072220296278
1.839809876647946
2.1298928487702455
-1.4469401620810782
3.419960449649544
14.239432728491103
7.840367840519034
-1.3393257955451068
-1.2366167539941826
-1.6059660432593525
0.38356522094780765
-1.1517690800416456
2.0871061448335197
1.4885481216703642
1.7805952715563849
1.283871720846397
0.7098101467362895
0.6079756742831222
3.195624278935121
1.9991409055382103
2.8434050587591573
3.441330408992912
1.772514895535147
3.05503137731786
1.305483241727469
1.878698106072207
1.0317848302008696
0.5902001828546674
0.585974930612494
0.453498003848589
1.439696303172858
1.195689788548569
0.6040970527590286
1.3265263818407407
0.812054976448801
0.17334402201055665
-0.15548744403125647
0.135097004520219
-0.11329711046344322
0.1342405709421311
0.2017499940852417
0.7417812028938593
1.1007639103311764
0.8082703829281331
-0.12741631816118903
0.14572022903573545
-0.08064808809545825
0.3664250996693859
-0.2738098837362891
-0.09501557045439915
1.131724255404773
-0.027208334207468585
0.3512550602098409
2.4882850316786387
1.7901215588841812
2.7876996277207295
1.3560263514694255
0.7664724493534588
0.8667025138210054
1.0496997046503511
2.3380720800299417
2.505985078366014
1.798301624900076
4.364681035978437
2.4555186178101445
4.468757300599734
3.4434423552058684
2.5638897768539
0.8216815943444535
4.905981019912125
2.398893251510078
4.673575166527849
6.212653771238994
5.87617165323342
4.295918443814367
3.5632790329026274
1.3241472533935381
2.342133674548478
2.5460636300321076
2.1687103621654176
2.142461149777165
1.535979585147941
0.7596033273945481
1.0614575522975174
1.8274357274444384
0.983878190003576
0.06371560312847374
1.6022199434894138
1.7179935773830504
2.289498018341223
1.3854607108823669
2.296254771897286
1.789754604083462
1.4514859699294016
4.946843787493818
5.120499273013309
2.029204384183527
2.4191308291444056
1.212329449519257
1.5696381063346054
0.954955839611613
0.943808261740033
1.7501142827372758
2.2120489955746807
0.8764992131913163
0.09676913693088929
0.47040982775262663
1.3589955992922818
1.452371945382821
1.0960445369451481
3.1198022694521383
4.726163303991829
1.7473152948683626
0.9049068924194958
0.7907875733378291
0.4292120960245101
1.9046748074972413
2.738559440000455
1.3964096878594594
3.0944337902165775
2.514302324280465
1.7441495979749635
0.5436042197014934
0.3106854587591159
0.415488296338828
0.7696014825991211
0.11361307744368826
0.596382980074923
2.0015819693075345
0.8486174441418557
2.8921901909887486
1.997853207666949
1.2202587666204319
0.6102293339150744
2.973563337972458
2.491209269578836
2.2268148719036525
1.8305908660539978
2.105092069286411
1.0801463975399015
1.495601571226383
0.6828465312346154
0.02038424117145829
1.1550871896664918
0.6672349104704572
5.183764934565555
1.8276581399791274
0.6774816020152445
1.4725645004557122
1.0779000837082933
0.8982978315734894
1.5837423705464184
1.69780273358838
0.7473149282872877
1.6224050115271655
0.615174393339507
0.8846971136659751
0.6161918015882081
0.9627018614734324
-0.31714238434328595
-0.7736364736287006
0.302390395144278
-0.28591113737830587
-0.1274509258772082
0.16465457415370938
-0.3957346515447549
-0.2190627778971297
-0.9654004231421013
2.1956460040844763
1.7031186034230237
-0.5954424609919776
0.856819420764029
-0.0342518840298951
0.17561743764638893
-0.8635655724710448
0.17577805183486847
-0.3751743760204034
-1.6295993195954397
-2.0246717428601326
-2.5327590411901975
3.6038010848217614
4.3336653052720555
5.318740616330186
2.5297775342517967
4.094044213112356
1.280248605591599
3.3360060291400315
1.5664417628817522
0.041632722170888814
-1.1939182634735934
-0.900714816440965
-0.46496079349397096
-0.5115053915497619
-0.49896165369593104
-0.04540266812279595
0.11011617605928087
-0.7254406123297221
-0.9484043919422425
-0.0075831155223273355
-0.2157570987381937
0.8300123170095908
2.17678362932935
1.5883505749946099
1.6876920856274207
0.9347417034875666
0.8352383170093816
0.5065496906061443
0.5471662879565783
0.2664138260652038
-0.785451772232359
-0.10356059842527182
-0.5531022676423347
0.10248400663085305
0.32592562496239413
-0.1449420829708471
-0.3790702895358732
0.8752446145102761
1.0479504716956636
0.34599208908291
1.2612779107033645
-1.8696782759328079
-1.0895734440352212
5.071300473060218
3.776617334782749
4.5285789588284695
5.883577460085211
0.012566270018856018
-0.0032755059073432125
0.025951560433169152
-1.9003244271279287
-2.3304598380661226
-1.7055467895773644
-1.7551813390840043
-1.120219595230342
-0.5483095118360891
-0.3586781490779988
-0.619977120985177
0.3171253412329696
-0.17268287602521318
-0.12934698913853995
0.18138007639959175
0.7402787504030419
-0.060256532393272555
0.5569844355282128
-0.0052525001124585635
-1.5995800873942634
-0.5645110576635602
-0.36695977654373535
-0.4797287803371328
0.8819247004220147
0.08980577702405321
0.18782117206755744
-1.7035371573923206
-1.7038708324572602
-0.03161939725196772
0.17147663291119591
-1.00744409513719
-1.8665551495489179
-0.19201409827369798
-2.0385702804626438
-0.36369555412248444
1.7789575731651779
2.032132757320176
3.640101909743646
3.5900227557518107
-1.6011418113079112
1.305583097487756
-1.3714055585206453
-0.01519351449357198
-0.8201577554214102
-0.48362569970632824
1.2735494537763703
-0.47366756675822796
0.14121680695655459
1.218288278824596
-0.11015190944322575
-0.11754601275271288
1.7885527336292615
2.27240900695544
1.452906821037857
2.2411703795828277
1.4185410156700697
1.2843733727196274
2.270532150456688
2.7777034581080216
1.6971707205408455
2.2562654982248644
1.6780352650685706
0.5348408437715172
1.5954085141353636
1.1815218977786577
1.8533564783627219
2.4875172394670177
0.8545040419021843
5.092026406136993
1.3520894561249326
5.073656117272609
0.21491410406179573
1.6912807454376435
0.9860351040006422
1.1622581765484217
3.9775687772697372
3.750093283423414
2.6508475935825
4.629294316349069
5.9856811471666855
7.158844646129176
3.6822511344016977
3.796224326255769
2.687460686488607
3.207169644715302
2.8484459995966427
3.2936470790811425
2.3325292808875027
2.4740317581942675
0.20803733591078388
0.12919697521595658
-0.5423378290841413
-0.31521717157823537
-0.45076179664335103
-0.14480077844261785
-0.1040784153561462
0.24471307609394216
0.5824708291600859
1.0101026813050016
-0.16606683812130799
-0.15088416624377285
-0.3103178345263261
-0.09837984889795531
-0.03362518932948183
0.6547615529002815
-0.31488025956647514
-0.4275524444034188
-0.40718700820452847
0.8947627618845903
0.8392533256147096
2.6105737888813088
-0.12787951700016692
0.7347211876135902
2.5694924902447336
6.116055622492421
1.2206389082083928
2.2258217736869623
4.931689890598635
5.048844662997459
0.10023492032118578
0.2540643937932255
1.4936108054122164
1.600249899053606
0.15122704782331592
0.27493117833544667
-0.08257365262945557
-0.6251595371351686
-0.6810617751373427
0.5472921846219566
1.6915401604288443
1.2267761031833713
0.7243530986003368
1.9717642472128287
4.50073468988918
0.16693683629736003
3.1235391311186267
2.211962598473359
4.66941772021425
5.001039292386229
5.805545835975309
3.4320607483536194
-0.8445330220162893
0.5847681891057586
-0.6669000204684212
0.5049074545673471
-0.745641046669582
3.183975459195285
0.398273488884299
3.8683181852094055
3.2292333611264885
3.5138717054843616
0.9531847171687668
2.4408904502957247
1.8157105998807617
2.0675490973855943
2.258611051696961
3.820983558566989
3.214661595590161
1.8654546285284654
1.4706819169863972
4.3075946171750505
1.4563260939160745
6.231856931375422
0.8172846722255878
3.6885296383380037
3.878718513428386
2.9275838100231977
2.2582245656353335
2.3704030181043705
0.568315314667496
-0.11790903610636264
-0.07492356646138937
-0.1328181288878436
0.6440678019792601
1.0251153596062608
0.024445638942941633
-0.06225233806058219
0.17319542678145905
-0.09851410959776837
-0.15077216508239322
-0.09143034209070929
1.8291866241662176
1.0625948425450384
3.509126665623608
4.656766004871788
0.20295474848236666
-0.1039595014172757
0.09814015125852835
1.013712917093479
1.3039578073380367
3.1228196768201637
3.0136661097872675
0.1215711821753655
-0.3333190811284722
-0.3669892895400162
0.7832415224061186
1.4157269278226787
0.23696092953538325
0.9585500624968148
5.044656423683209
6.68401282852398
6.823564728995106
1.5155688893475432
4.261633584721
1.3538702976770103
0.2471620071443239
-0.15524265131703802
5.126310452258485
3.1392487653379573
3.7026008848053777
3.978790845949675
4.078637152225188
4.852582112008138
4.975339391335605
1.923007522097982
2.245506045175076
4.494707417586158
1.0102640256737478
2.7379703946746288
2.96587490866239
1.346127491326615
1.1805248151148104
1.6780035551277317
1.7403053929036885
2.0904333511550783
3.6958092927311155
5.717610835720569
7.095082263308845
0.807442584743673
0.24391007724296968
1.317392936900972
1.7851133415637714
0.6188407878408831
0.9070148298721282
0.6038074397398552
1.0830169713364584
0.9595652896004057
1.1914020701316217
2.736484172175722
1.4576464653349301
0.2778451743035163
0.6655565894032904
3.174383234935786
1.4029158042756742
3.623712000207609
0.9493298510915872
3.638792873128434
5.803469462200361
8.735776229704653
8.23494005051191
7.37637514895371
1.5139726609751074
3.0776136187111405
-0.1451706865412484
-0.04154549522462081
-0.15730952545979313
-0.3109433691733673
-0.24347429156922673
-0.33423354697352153
-0.4630401185690614
1.9602183276940992
1.0212800278983079
1.501642931628551
1.6577280672553627
2.152688611151912
1.1088620237466924
0.7566844339995629
1.40817069538651
0.32882435997515325
0.12860006257378065
0.2479117238470745
-0.08778371506165142
1.1862971735700494
1.970409907055029
1.1659742282138537
1.7940018260720216
2.32696667976397
0.8258550471858043
1.3154788738563639
1.2563668667341703
1.982692567653817
0.5595009872457363
2.543017378051055
1.6809745017504334
0.11781147384445653
0.1735725747701432
0.08406065111599287
-0.058919552298379
0.3738147794032474
1.276374647587254
-0.22274021085185028
0.5819862573194935
2.112573723361668
0.05356310863685737
-0.002278421062960001
-0.3039555245109389
-0.008846675991489764
0.41375405061340975
2.8957958910916624
3.7828220465362135
-0.056554491617062115
-0.15199051760526666
0.06511813146297867
-1.1644312655179987
0.5926602032957635
2.295944115268152
0.6063217240585301
-1.2271811994398565
0.4962644409496394
1.0016321317723929
0.3941013674966819
2.055147063555612
1.3793839448057055
1.2443852920253204
2.754423870606307
-1.558033812882763
1.7241572670426555
3.236525941074914
1.7704102804198902
1.7127223045397284
1.147491414278206
1.0584465680768798
4.030590204308081
3.3418582242691675
3.377367223658328
0.637299895123525
2.565355329450491
2.6638469146761516
0.0006718692065301873
-1.19469486601408
1.7928834174766846
0.6971782075612758
1.0592749886495967
1.0140556773933966
0.7071220412411847
0.6480427714241657
0.2920705550055753
0.34457081333942996
2.3258560767776797
3.3482002483904316
2.2604445332124943
2.9651893589011644
4.520665478741901
3.572776699488628
1.3383342429953504
0.36772853632268077
1.212320885591459
0.09415142913687953
-0.19089591944186934
-1.5304819688511941
-1.3960976894886885
1.9769649844046162
2.237180577406672
1.9240193888834398
2.5903932254675825
2.7020146735021893
0.47505061744693444
1.2599995796689947
5.287065260610686
4.7188135253460075
4.77229885441413
5.1610045328595255
3.2535188247366666
3.252662944537388
3.789238779625805
-2.00512530774071
-0.8568801157370407
-2.7449359732828515
-1.9442494052846249
-0.9114281470208722
-3.2534608569221013
-2.9505028420662627
-4.951428084162098
-5.71770555663533
-4.2861811006348285
-1.564304966505997
-2.3243687653891403
-2.2260717560496337
2.4023047364581256
2.723368723137445
1.8572784997126677
3.320552416333081
3.0969108059919526
4.239120735933047
4.788217662615436
3.565790367194857
3.557536055988784
4.39029672616678
3.9604996493299676
2.9313272943633706
2.521530195050806
2.0059916463623297
2.3365864583414475
1.9809862981205604
1.265950546994061
1.9997137100694564
3.0935296130344754
3.233549441482145
3.453703342226984
2.5881973599563537
2.262814032053043
3.1593401583493073
4.876366145098655
3.470589305592541
1.4462047887438578
3.361604528355942
2.513975141021123
-0.5060384294816921
-2.5044117168704845
-1.3221453863212587
-1.2608549628914032
-0.7313540792620555
-1.8803709896377536
-0.7851629143341551
-0.4757340570984607
-1.553500037212263
-1.6598872563941254
-1.6909335584546668
2.3816684370319403
0.03203324642553088
1.214836208462358
4.219055020503709
-0.1548468141203571
2.8701454357264637
1.789344565453147
3.6315338532631403
2.1502933336958208
0.1260266896781641
10.204896426422094
4.737182794389219
-0.018133446000399456
0.8564247397618244
-0.2696835857461789
-1.4753309110000095
2.9070694515657056
1.1738847269993407
6.999547398101734
8.260541600001337
2.355676491033555
3.7680008385114276
3.951350382596963
-1.4386262667453882
-3.056733945492981
-0.6782389315148074
-0.343739234447668
-1.7918647488780501
-4.595818514454676
0.34583890263608275
-2.455810104126919
-3.974086786429125
-4.188888697078868
-3.836086044223398
-0.6808053763892059
0.4681905433338581
0.1474990851800843
-4.587812098667344
1.3988554271501743
1.5669611856512662
3.1794802962136828
2.9895986496958793
0.4688722912609726
-0.35309153751251077
1.2286221937561401
3.0496235362107758
1.9431940040068356
1.9495492257612819
1.9350263172482078
2.1435085491404267
-0.2749959195018661
3.1253652622273633
4.111587584516899
3.8411744212192627
4.2056912122911125
3.6898084470200825
1.5125419160861977
0.6227557440236122
1.9836739481265657
1.1632007474922166
1.1238681844019482
1.237672411090768
1.5775858138859564
3.571728731888881
-0.20031805209228776
-1.48654291250471
-0.33640256543856695
-2.019103699641124
-1.0150492485840128
-0.5135347635081401
-0.5694341858063775
-1.54899460709228
0.10544811343952637
-1.026750743190028
-0.89319441972013
-0.9634034248054512
3.0495804392943997
2.6936194863938994
0.10179372521540819
0.7759001398097447
2.8580582502392726
1.520203904732527
0.9835154975676936
0.22528649040179224
-0.6655588275233382
2.8458180156927235
1.0982482178996782
1.260274768717869
0.7563762274462642
0.3800293634030523
0.06693033692795643
0.4980822115047624
0.6796913381929288
2.361319876417274
2.3245427193339
2.886683684003892
2.105024898704175
1.6498954187954862
2.1978749879531443
2.265274581694571
1.7300987664599905
0.9942658789085117
1.584823584043373
1.2197094594471514
2.9747609714562584
2.1833267877842486
2.7030185126069357
3.0927762113998134
2.715011790607864
0.39179637351197194
3.0321685411825023
1.4130715681592243
0.24902971536476232
0.31024139146750784
0.3282648876098217
0.7725328219083589
0.919532118752786
-0.22583593249379352
2.0898109613347504
-0.5357623061942329
-0.4917444096407608
1.0550234988504739
-0.025212686771161175
0.424938313766421
-0.5690085798696749
-0.4066811947650253
-0.49297048675056443
1.8385381253576087
-0.10515131795827248
0.3963043132602636
1.723599146660115
2.3941091625715676
1.8789629561850085
0.07065639288298876
-0.031394234720316494
0.19533998107383593
0.45971799378179085
2.1973809653647827
2.1160664704257517
0.9196544435635138
-0.1176835267058556
-1.0586505049377208
-0.8492362257334526
-1.0694636763402499
1.7084404031836695
1.678315955397327
0.8255380293668565
2.8377665334898925
0.8434913272353188
2.5193310673575224
1.377833787133419
0.07795522304620062
0.046502147347556144
0.09035627287468773
-0.28923864771351526
-0.24538452218638368
0.20618684540721496
0.15993557947650566
-0.04575900000524408
0.6475732443512549
-0.015991043699500454
-0.7278048565040942
-0.5645549200756587
-1.2871079768168143
0.24931912499307815
0.757662747347628
1.093097112798938
1.200808311273128
1.366682621660978
1.7355674962227436
0.30096175330371466
-1.1892547865910041
-0.8454562280242304
-0.16701739595530435
2.1691764175938273
1.9320554464004882
1.072814706212849
1.7278259003046559
1.0462143654276639
0.4998893166301727
2.7220457045848114
3.4785908731328856
0.800942848617532
1.821762993682873
-0.0512672272714608
-0.17419811197380822
-0.13129377132792514
-0.42234646275628257
-0.7229048577087305
1.2955684145225348
0.3393892993876709
0.15032395096772022
0.9808720375919447
0.3703147040738963
0.1839987231456991
0.9052398857139243
0.16550163874292861
0.2368824622716243
0.4753702997805708
0.2532561757153132
0.12407526226236593
0.780911333599609
0.2936617899646467
1.178783270332427
4.38183149648939
0.22361396968717073
1.007366651530723
0.5394468945204288
0.15890906746867153
1.262558919272592
-0.1165506901137574
0.6111334797273418
0.07501386012756586
0.007044622777364069
1.0485207177970308
0.29720241954894955
0.8390398035624266
6.512786782051389
1.232166372470394
2.418153704888483
4.733646620904022
0.49523870972762585
0.1271244822527723
-0.4274395998327707
-0.6329300707461376
-0.003203091445951628
-0.16582684800743827
0.0016657272231694331
-0.36644850025168413
-1.5613181671139735
-1.645511498579539
-3.0345846780403223
-2.9132875385925208
0.9238487973532078
-0.15037827126325964
0.324562433521127
0.034797051997612245
0.06492610759171771
1.0037552909271212
-1.139279313206355
-2.144490053599469
0.5094401437064809
-2.7798994240741504
1.25957022892633
-1.1466021305029837
0.6346234764204415
-1.0884943195824266
0.8120100344156496
-0.4069767153573016
0.2530830541523804
-1.3667687377691011
-1.8363625958498533
-1.4331468055401062
-1.9301974787865424
-1.3113384575194216
-1.9439414118634195
0.2868058413929555
4.276478802339977
3.6290481757298068
-0.15803258594213387
-0.9127877762191201
-0.2992946443993052
-0.014133312203071275
0.0019008105828858257
-1.5205927979285723
-0.4383371043482928
0.5947520334236189
0.8210634977196436
0.5586426681351132
-0.19032557969876318
-1.6507020244953277
-1.2474899080662487
-0.6574944136048071
-0.8846177294383695
-0.933956089024388
5.914713022453105
3.7612983999200438
3.922266684724727
9.569226340449857
10.174259836951311
7.3889652788035685
-0.128845482369343
1.3851349570429212
-0.10427604465429247
-0.14343235689217387
-0.08315759402287365
0.21587228213528992
1.1415713390354385
0.6187923140080469
-0.009113040082353066
1.2427689168347447
2.270701559279339
-2.326573035739061
-0.420283928424918
-1.711467457211675
-4.584724889027944
-2.9810594777941217