# vtk DataFile Version 1.0
Tissue data
ASCII

DATASET POLYDATA
POINTS 1714 float
0.444212 -0.0195366 0.9465129999999999
0.336685 0.266083 0.965422
0.43485 0.0128688 0.95762
0.113092 0.463135 0.94864
0.410577 -0.0817645 0.964212
0.0623879 0.48313 0.941924
0.344411 -0.218396 0.980771
0.0968138 -0.460481 0.958428
0.340416 -0.119716 1.01431
0.367828 0.256366 0.952392
0.434567 0.149553 0.94379
0.34343 -0.182787 0.995483
0.241854 -0.301805 1.00459
0.228214 -0.334443 0.995096
0.444041 0.115447 0.94476
0.303787 -0.244962 0.996705
0.199908 -0.356775 0.9946889999999999
0.431612 0.086256 0.95978
0.245473 0.361538 0.963009
0.318678 0.286778 0.9649139999999999
0.12649 -0.438021 0.964664
0.25789 0.32429 0.979557
0.403056 0.234035 0.940128
0.269395 -0.27693 1.0013
0.394723 -0.132642 0.969523
0.44571 0.180938 0.926867
0.153669 0.424098 0.968699
0.27864 0.343872 0.953415
0.362588 -0.155476 0.98957
0.195755 0.422265 0.949429
0.406365 -0.108938 0.9642
0.417124 -0.0495351 0.962889
0.192082 -0.378224 0.984147
0.174117 -0.410743 0.968529
0.232331 0.398251 0.94645
0.308387 0.329071 0.94591
0.43814 0.0514342 0.957421
0.438097 0.213256 0.9229269999999999
0.327958 0.31116 0.946386
-0.262802 0.384453 0.935053
-0.30097 -0.333613 0.96418
-0.280678 -0.390746 0.949147
-0.432804 0.139975 0.914647
-0.372067 -0.300116 0.926625
-0.290996 0.376532 0.921543
-0.401865 0.222883 0.923322
-0.176732 0.410562 0.969465
-0.399746 -0.176189 0.934432
-0.386376 0.285249 0.914246
-0.285104 -0.357574 0.963005
-0.174307 -0.428581 0.972775
-0.235011 0.379851 0.957477
-0.209229 0.383349 0.971272
-0.131942 0.430918 0.974701
-0.43049 -0.154878 0.90832
-0.472364 -0.0165185 0.89199
-0.440998 0.0881691 0.916133
-0.446314 -0.118462 0.899689
-0.327199 -0.355689 0.935902
-0.212748 -0.388753 0.98539
-0.313482 0.341636 0.927459
-0.348944 -0.266588 0.958997
-0.369739 -0.321647 0.918875
-0.374059 -0.208539 0.953571
-0.241386 -0.396963 0.9677749999999999
-0.454393 0.0534509 0.909364
-0.460065 -0.05407 0.898463
-0.463604 0.0241397 0.902664
-0.405768 0.258733 0.910206
-0.376327 -0.277626 0.931569
-0.444732 -0.0829322 0.907444
-0.365763 -0.2412 0.952125
-0.192219 -0.402776 0.984407
-0.347364 -0.212135 0.975357
-0.131031 -0.452054 0.967761
-0.358061 0.29313 0.927871
-0.357294 -0.349054 0.916075
-0.345863 0.321902 0.920567
-0.414992 0.178709 0.92301
-0.0922669 -0.476583 0.959769
0.384116 0.139747 0.978615
0.276487 -0.20317 1.0304
0.19998 0.336882 1.0065
0.183669 0.360389 1.0009
0.389593 0.117218 0.98041
0.29963 -0.0822734 1.04623
0.322128 0.223439 0.990646
0.0786389 0.393037 1.01735
0.0927158 -0.397571 1.00068
0.286918 -0.149163 1.04246
0.341587 0.198254 0.988137
0.360799 0.0180251 1.00878
0.324868 -0.0604571 1.03262
0.12466 0.365541 1.02093
0.367213 0.0633315 1.00271
0.186373 -0.297474 1.03105
0.365687 0.196651 0.974513
0.240007 -0.209846 1.04657
0.300795 -0.168821 1.02889
0.394492 0.173639 0.963678
0.367336 -0.0240998 1.00339
0.355647 -0.0696545 1.00953
0.203131 0.309508 1.0184
0.29061 -0.122635 1.04576
0.280241 0.21952 1.01526
0.143151 0.3503 1.02261
0.154267 -0.319666 1.02931
0.22009 -0.243328 1.04176
0.237585 0.288486 1.01055
0.213961 -0.275902 1.03001
0.276197 0.267713 0.997926
0.109919 0.381248 1.01654
0.126955 -0.334534 1.02824
0.299125 0.2321 0.99976
0.118748 -0.366016 1.01261
0.386838 0.0880694 0.987464
-0.228083 0.316135 0.997768
-0.186848 -0.349127 1.01428
-0.350157 -0.11438 0.991397
-0.327183 0.195614 0.981704
-0.380887 0.112538 0.962141
-0.28811 -0.218935 1.00979
-0.290572 -0.27285 0.99421
-0.296438 0.279699 0.967809
-0.34291 0.129476 0.990299
-0.113807 -0.391033 1.01143
-0.310991 -0.18559 1.00436
-0.211488 -0.33512 1.01132
-0.260058 0.301045 0.98303
-0.413818 0.0489322 0.942282
-0.400933 0.079085 0.949054
-0.402419 0.0170399 0.953588
-0.240798 -0.318256 1.00477
-0.171698 0.340705 1.01707
-0.342668 -0.163616 0.989348
-0.246643 -0.286354 1.0137
-0.387813 -0.0716063 0.962871
-0.159001 -0.334913 1.03041
-0.1491 -0.364053 1.01834
-0.3852 -0.104834 0.961604
-0.362492 -0.141369 0.977309
-0.199113 0.317403 1.01503
-0.305786 -0.210424 1.00179
-0.33329 0.250063 0.958069
-0.321404 -0.168555 1.00175
-0.340167 0.193244 0.974245
-0.137553 0.350061 1.02798
-0.289271 -0.235722 1.00524
-0.349407 0.217783 0.959653
-0.346335 0.162688 0.97978
-0.397718 -0.0447731 0.9568909999999999
-0.408777 -0.0134484 0.949226
0.115586 0.167951 1.10438
0.0925101 -0.156236 1.11067
0.0566811 -0.152381 1.12472
0.131739 -0.125216 1.10394
0.0870801 0.191374 1.10549
0.135933 0.138603 1.10645
0.143393 -0.0541721 1.10814
0.189469 0.092658 1.10422
0.0623193 0.203199 1.10852
0.134473 -0.0884952 1.10727
0.164689 -0.00241899 1.10767
0.172795 0.133183 1.09815
0.167257 -0.0340016 1.10358
0.203461 0.0661661 1.10412
0.18046 0.0336452 1.10714
-0.159399 0.158299 1.10586
-0.210089 0.110324 1.0843099999999999
-0.228984 0.0578248 1.07977
-0.165628 -0.165069 1.09449
-0.199737 -0.11019 1.09192
-0.250759 0.0350112 1.06666
-0.241996 -0.0109562 1.0746499999999999
-0.215483 -0.0767401 1.08771
-0.169993 0.128376 1.1073
-0.169952 -0.121944 1.10314
-0.225692 -0.0464786 1.0841
-0.128461 0.167943 1.11835
-0.13709 -0.175892 1.10153
0.335488 -0.151545 1.01088
0.316696 -0.132984 1.02848
0.385814 -0.0594639 0.986723
0.18978 -0.330925 1.01285
0.235197 -0.283859 1.0165
0.0682141 0.436816 0.987414
0.253805 -0.229409 1.03157
0.218728 0.350459 0.988181
0.125841 -0.407376 0.984578
0.292158 0.301103 0.972069
0.409398 0.107806 0.970326
0.41284 0.199691 0.945119
0.112581 0.416438 0.991289
0.378893 0.218426 0.960315
0.384434 -0.0961596 0.983744
0.392108 -0.0353168 0.983804
0.311608 -0.203617 1.00969
0.0913519 -0.429913 0.980182
0.405132 -0.0123181 0.97612
0.212322 0.379097 0.9729099999999999
0.326157 -0.0991735 1.02776
0.143677 0.385099 1.0028
0.422729 0.170157 0.947
0.382391 0.0042636 0.993583
0.398683 0.0321218 0.983638
0.259113 0.299551 0.99292
0.363295 -0.120516 0.99684
0.277289 -0.237893 1.01497
0.345202 0.23274 0.9746279999999999
0.217204 -0.305648 1.01486
0.413905 0.136407 0.960956
0.162308 -0.351335 1.00953
0.178871 0.393143 0.981842
0.310911 0.260827 0.981965
0.403811 0.0658513 0.979842
0.155086 -0.381187 0.993175
0.243906 -0.258926 1.0231999999999999
0.229243 0.323605 0.997596
-0.269662 -0.331203 0.98402
-0.322146 0.303784 0.941653
-0.365499 0.264686 0.934542
-0.242754 -0.341786 0.993906
-0.359905 0.183551 0.963844
-0.413569 -0.12705 0.930126
-0.20266 0.342642 1.000088
-0.36913 0.235261 0.941775
-0.0946565 -0.434131 0.988997
-0.333386 -0.305111 0.9538179999999999
-0.269789 0.336704 0.958087
-0.413908 0.114032 0.933843
-0.187873 -0.373842 1.00153
-0.426342 -0.0606039 0.9296719999999999
-0.439693 -0.00319814 0.923321
-0.278349 -0.310498 0.9874189999999999
-0.435338 0.028587 0.926351
-0.418492 -0.0938755 0.931573
-0.426777 -0.0353485 0.933169
-0.324398 -0.253977 0.979999
-0.35801 -0.180208 0.973926
-0.133248 -0.423996 0.986788
-0.221751 0.354969 0.9817089999999999
-0.143416 0.38405 1.0043199999999999
-0.372812 0.151038 0.96266
-0.157827 -0.398009 0.996954
-0.332634 0.276179 0.948467
-0.391397 -0.138473 0.949989
-0.331566 -0.192855 0.990406
-0.374245 -0.16012 0.962866
-0.232948 -0.368247 0.986252
-0.325718 -0.226992 0.9863689999999999
-0.187449 0.37219 0.990827
-0.403541 0.148677 0.937527
-0.426605 0.0648139 0.930329
-0.381875 0.192878 0.9450959999999999
0.445522 -0.424362 0.799138
0.45324 -0.374084 0.822981
0.655513 0.0695549 0.731355
0.296707 -0.557172 0.806319
0.321017 0.565197 0.786318
0.633187 0.144037 0.7440519999999999
0.27268 -0.604289 0.7687809999999999
0.131466 -0.674514 0.736047
0.44698 0.492916 0.7669239999999999
0.36308 0.528914 0.793779
0.138903 0.631234 0.784226
0.325511 -0.531742 0.813313
0.608118 0.298846 0.718237
0.110632 0.641823 0.775133
0.472422 0.473804 0.760441
0.600044 0.266574 0.744189
0.615538 0.233814 0.739281
0.471422 -0.349577 0.819813
0.625481 -0.0262022 0.775349
0.128538 -0.706538 0.699892
0.205394 -0.654404 0.744062
0.41737 0.510622 0.775076
0.602164 -0.119445 0.781121
0.147464 -0.690708 0.715071
0.631617 -0.0524476 0.763668
0.625 0.200091 0.7386699999999999
0.0952765 0.664427 0.7501599999999999
0.386462 0.514496 0.791409
0.201709 0.618277 0.785624
0.604127 -0.165174 0.769508
0.0672649 0.683404 0.729789
0.618942 -0.134508 0.758219
0.261653 0.616419 0.767318
0.56552 -0.22375 0.794164
0.508855 0.419123 0.762285
0.527813 -0.260571 0.813753
0.240792 -0.606082 0.783164
0.53564 0.384327 0.758074
0.281516 0.594901 0.778204
0.27743 -0.580628 0.792011
0.499388 -0.331681 0.8034979999999999
0.577379 -0.18337 0.794328
0.647372 0.0146952 0.748349
0.156682 -0.670742 0.735661
0.640484 0.110186 0.742945
0.621895 -0.0914629 0.766147
0.357374 -0.511993 0.807507
0.59759 0.334363 0.715868
0.167422 -0.650259 0.75722
0.392281 -0.475636 0.806721
0.304537 0.584066 0.777474
0.41281 -0.425071 0.828072
0.173331 0.623346 0.7877149999999999
0.412151 -0.441997 0.816398
0.339187 0.54243 0.796122
0.465015 -0.39293 0.800741
0.527664 -0.295715 0.796337
0.234849 0.612512 0.780536
0.625199 0.167451 0.7480559999999999
0.563087 0.344483 0.751593
0.218091 -0.624281 0.773281
0.497275 0.455083 0.751497
-0.652168 0.0262083 0.661307
-0.355346 0.525844 0.770617
-0.528212 -0.403108 0.674059
-0.230448 -0.665382 0.744552
-0.527453 -0.424858 0.648536
-0.159478 -0.701512 0.723837
-0.240782 0.585437 0.775529
-0.592592 0.261274 0.71763
-0.269011 0.570138 0.779137
-0.303463 -0.622039 0.749446
-0.54201 -0.37071 0.678298
-0.643115 0.0559356 0.680889
-0.635563 0.00461999 0.693947
-0.64003 0.111084 0.680929
-0.441628 0.457634 0.758755
-0.556035 0.351244 0.716328
-0.456946 -0.50361 0.695223
-0.635103 -0.0371454 0.684079
-0.190123 -0.689309 0.731082
-0.571164 -0.249579 0.699473
-0.321907 0.553635 0.766357
-0.489214 -0.460619 0.682658
-0.628332 0.155365 0.697612
-0.531456 -0.346575 0.715816
-0.348681 0.552096 0.751903
-0.634156 -0.17028 0.627107
-0.159339 0.645672 0.74431
-0.18165 0.621888 0.762004
-0.080114 -0.723122 0.706606
-0.415785 0.476913 0.76523
-0.614794 -0.226523 0.62993
-0.530099 0.40703 0.708274
-0.548238 0.38806 0.699776
-0.376626 0.513225 0.76757
[...]
CELL_DATA 3350
SCALARS gaussian_curvature float 1
LOOKUP_TABLE default
0.3564899298881969
0.9733130688596661
-0.48395580275517336
-0.29105997713590315
-0.006528055047011205
-0.43045536839921006
0.3719471380528259
3.0993856801854536
2.7103042954706655
-0.6577402076758736
-0.129306886022633
-0.15463127674402727
-0.06326837389648501
-0.37506547331809387
-0.7524540085288676
-0.9416956216141967
-0.026500594563811222
3.1674968904197423
1.0214517395771545
-0.05386300143961606
0.4023737383809328
0.6172130142272567
0.46328238753622153
0.06671748105982749
0.9188054863107802
0.545700281802691
0.30717330527021863
0.2202030793580032
0.5245803592746373
1.168030226305019
0.428091695009956
1.6478981094222243
1.8575002758948083
1.2510956551591716
-0.6768737312705553
-0.27482569893851944
-0.8946956817969008
0.005498790131529763
0.6928573385204131
-0.5916070633036665
-0.4306800826791991
-1.00371509581039
-0.3073164044700178
-0.32355510304546703
-0.15707141450507486
-0.5344916060088625
2.62938292329101
6.031186117397009
5.8821535349830665
-0.7903174270630291
-1.9147296707032493
-0.8767956357257582
0.6889659223926535
-0.5918718712971829
2.1234413566965262
0.2051234249222073
2.172471140463398
-1.1927284607805633
-1.123126571292666
2.7039602181182807
-1.3180835868007854
-1.1948267184163894
1.6999697961633455
-0.7982135964717223
3.7216794146600556
-0.3752743847882733
2.223781495887506
4.402417363561517
2.333080101145651
8.614273346288764
1.945777572196247
7.593450377582112
5.324888085058488
3.8872589877772112
-1.9310357355017707
-1.471903158947227
-0.8959018711195508
-0.867586049722525
-1.7016821792595207
-1.6220828128246019
-1.6341783720422067
-1.2885931678172362
-1.0569719457613167
-0.5083179042037759
-0.8488526915420699
0.0590714246364564
-0.19010045985429536
-0.5216824125075491
-1.2773421397716396
-1.1454864803517986
0.4564514962098239
0.2680508895009772
-0.3497633786464569
0.8727027804068566
0.4619582005297158
0.32319208278346656
-0.5116921071571567
1.4588139253670962
1.7501053676182456
-1.4988259444402057
2.2649217537485953
11.18570967827879
5.840348507693557
-1.3773929368395257
-1.2131600917730536
-1.4883402061170408
-0.11409357553663957
-1.2582248734896928
1.7608715917797126
1.1873409526308571
1.440614737348379
1.0044859471691698
0.5361158465614656
0.3987139975918195
2.792438340971126
1.6232688818996661
2.3491383186741728
2.944777138596778
1.4536993659431383
2.701373608358919
1.033714672876349
1.5969436604413985
0.7710480432475509
0.4408484568663176
0.37934762860201887
0.241177114375548
1.1200685336770615
0.8735460011606835
0.42979510346585525
0.945622271588213
0.5407754481934399
0.10972357537079895
-0.19061520411720703
0.03076953494852494
-0.17728987182688646
0.03847987466223382
-0.13763136872070353
0.5600946150421336
0.7882568449765821
0.30630060770286527
-0.14754552957666395
0.07835331774809667
-0.06432433987532328
-0.08404938724305228
-0.21130128968079684
-0.18746365045336813
0.8537932888033428
-0.06992730613534834
0.18389792453999793
1.6934739605225837
1.3119693285830725
1.9234877703678652
0.6626362510351986
0.09415877993276649
-0.00324082218933322
0.21823440058265925
1.448463664272585
2.123985835079921
1.4479620687711223
3.8600895996411646
2.0053797653448546
4.021307278612258
3.0815499472403145
2.299712104293973
0.578488097060467
4.34659137289205
1.8962427186731345
4.196581451592422
5.724390270512075
5.413162670241354
3.9372189639126463
3.1549290247324175
0.9280804422222616
1.9028013685667795
2.0734814674997577
1.7564359697048695
1.7175139021652632
1.1832604222404997
0.4531842753113384
0.6402480715940961
1.3657881191319954
0.5389593439619706
-0.28672364512179205
1.2050962555636286
1.3396296769207194
1.889974991332121
1.0607448406958098
1.8740780988798633
1.3381801994404006
1.0940582226796058
4.311843976023408
4.494459278022067
1.6017794108140593
2.0050411437761184
0.9247033946670005
1.2138368705646352
0.662049292096377
0.6800039109017628
1.3864777805299615
1.8280992965900729
0.5153221118217469
-0.12625658032448064
0.24077482388321772
1.0265570440312362
1.1360870522435405
0.7033294319118468
2.8250425687814706
4.355816686350369
1.3131336919047143
0.49568064027072944
0.6186836337210427
0.19170235381311584
1.618508893205008
2.2491290040600846
0.9838670486516418
2.4651161410613707
1.8916551552977305
1.2645233006692593
0.4566850471965203
0.14105541729986604
0.25419557038085167
0.5703779753239133
-0.022962575275027902
0.40457147967930646
1.7012416341996865
0.6399119216670666
2.3828955736564565
1.5296330024957643
0.8992832226094066
0.3604498777152444
2.489937418767337
1.9229416015294973
1.7887127058254793
1.5303638525493661
1.6393091444397714
0.6407602181819056
1.0528669964463249
0.20539781555844594
-0.4601247718733732
0.8154890614940992
0.2763098050489806
4.510284274423841
1.368577164516649
0.3472787784975622
1.0907243320247448
0.6952038398592674
0.5764478458869431
1.2415323677451735
1.3408347944202288
0.6068267252654703
1.447213858486399
0.37370263977015344
0.6833729694676024
0.4083266037364782
0.6435917350111826
-0.20827766340272197
-0.5658618111471385
0.24676291930108568
-0.6792539252781657
-0.1167786871817231
0.17581048766403132
-0.35781378104307054
-0.41518874094902813
-1.0790601530471278
2.0423268622522923
1.6638389218430811
-0.6146150314205024
0.8055324736470584
-0.1352698236809401
0.23556517870455962
-0.819810452448451
0.27140485153795846
-0.7347937183975469
-1.8311742478700186
-2.3932862463982736
-2.8257953637726456
3.3809743196691224
4.176639049287401
5.072320553615012
2.1590805124948473
3.817332947360196
1.1967882365891858
3.172085015800718
1.4491582265602037
0.06399565850044145
-1.2814973960700793
-0.9790053166864439
-0.5546168231018553
-0.7299730952826555
-0.5829969743591804
-0.049465895011597164
0.061969767663617455
-0.5481693309497823
-0.6835029976125602
-0.07325454318161151
-0.23639361192878267
0.7047127080834044
1.7713621112486915
1.2584966003200393
1.2855643746088348
0.5240228171576445
0.732691806041913
0.286129379971961
0.30958850865805665
0.05932520833352525
-1.0461481116181282
-0.4024179928895791
-0.8107825029277428
-0.13246344667335344
0.0497109226970264
-0.34238741483432306
-0.5178013543170701
0.6447090681864407
0.794319144144584
0.1625769932055996
0.9821556806233852
-2.2235255045348126
-1.4136507761703898
4.854909944087257
3.6496521870352145
4.476153590890935
5.847770258100699
0.047580222640302816
-0.001893481472322614
0.05036162722121487
-2.15535464486641
-2.593456615609931
-2.0464880441118334
-2.133584771929595
-1.3454799165019875
-0.7155447497279999
-0.5520943873404827
-0.6758472709629454
0.01802347771699092
-0.36259506523858276
-0.5479341689139634
-0.011187056309073962
0.5135746136161348
-0.40379104194432824
0.4373414595721308
-0.07720561810454912
-1.7776107230682878
-0.6842885863931925
-0.4499241414703622
-0.5570061686965313
0.5912467686947932
-0.10197321385095462
-0.14645822874300474
-1.7708103937056674
-1.799171154281498
-0.12129951130879735
0.07157742852861132
-1.0896682998693097
-1.8320406090067838
-0.3014538402837682
-1.9716744344311539
-0.4127269051323075
1.6371880238341576
1.9128708791354643
3.3944377385015168
3.3116318230376187
-1.5101479258121058
1.164636149328952
-1.2921748447463863
-0.0808388088901758
-0.8101764347907838
-0.5187753244554183
1.1373943619817888
-0.5090330156350032
0.06804369499020912
1.1185750832692498
-0.12888722681729098
-0.12233082170760212
1.6813797897344727
2.168294587901517
1.3939534239297406
2.170270987616289
1.3707253341028989
1.1452451176651555
2.110805050704135
2.6449977553863486
1.5800114132237209
1.9435710519306357
1.3572298446399427
0.4433588194792974
1.5250402663902598
1.1105803340091338
1.6983084722892148
2.3392329511755303
0.7971288637304008
5.041824512290238
1.1630818242980197
5.011856134845679
0.09510755595802453
1.582954166259092
0.9158963069716946
1.0175302620171183
3.955636345260153
3.772645888728515
2.6262630425838633
4.612222301896381
5.789041063638374
7.1470537237303144
3.662389317370363
3.732694429746627
2.670195678124691
3.1440941204533357
2.829214941308186
3.1705333272827145
2.2515675495033096
2.375675821419212
0.014706845036991267
0.054056616233800814
-0.6235971173691616
-0.31661892217604093
-0.47848369124355505
-0.21085526724724382
-0.46067105224844657
0.07704661085597314
0.1436621497910216
0.6420300416986319
-0.3230907012835496
-0.20085447202567405
-0.3311496873230609
-0.14640772138781577
-0.4502899862242939
0.32559432714675596
-0.276194568531632
-0.48421646679192887
-0.3049173387021782
0.6851597862558112
0.6292337624995724
2.296960361856432
-0.12257134671937969
0.5745302750721986
2.300336052856878
6.0334960729332225
0.9751202879966329
2.0024122568145453
4.803298312214954
4.886854819620165
-0.11810184885706645
0.1070818645970788
1.3131507618622331
1.376110982938105
-0.05523379897640169
0.11700956940409618
-0.2716777394306079
-0.6099124570168973
-0.6650118629726289
0.4957558215572704
1.5576119346724178
1.060167112911257
0.6068878621865783
1.5418249873442873
4.096663698481582
-0.2856698480478464
2.7675367549970584
1.821862910432658
4.2915940728027415
4.547188389925977
5.313917421357484
2.958553010328413
-1.2573427423981398
0.27213208735481825
-0.9795787300838459
0.026079687368938953
-1.210275576701286
2.948471881644262
0.26170209069793315
3.5703417390314316
2.965300664849833
3.2518378161565424
0.9754382519954525
2.261031874937686
1.7614279667677049
1.9159831889089571
2.0566018607139975
3.5077557561673456
2.5320770115572917
1.739292902556099
1.0853460486417452
3.1637237805851712
1.4367105736146404
4.985434983775342
0.8881504146351986
3.218959920708762
3.5825627424282183
2.715390257957641
1.9768276832206062
2.106784584360259
0.4065236141087303
-0.1359035117030088
-0.09904188617705528
-0.15305028761574396
0.4692831432187491
0.8972860982844146
-0.009226113024407082
-0.19316355668896484
0.11438674799317954
-0.11566012435691814
-0.1975320327661475
-0.14253621047813084
1.5627899431862364
0.8169397266892504
3.2141907307997144
4.388043902362366
0.08999474803752353
-0.15068187860496748
-0.03484277936317403
0.7139827334415495
1.0147466971972288
2.9028112772867725
2.716450767449799
0.0245790289479402
-0.37732237167922
-0.4226483455740558
0.5662443310366868
1.26507263640292
0.11062815449053891
0.8189178073068473
4.599996268230779
6.178351947906514
6.270123563703077
1.1191004117095844
3.8588247914452865
1.1913295233506043
0.029960823290637206
-0.4834382896730574
4.646193372775913
2.7065147957772293
3.3588081149051696
3.6350234634609064
3.672562975050208
4.456028699414505
4.613659771509334
1.6262400903091447
2.0961239091360744
4.169938448074691
0.5934786820361548
2.629617008584927
2.9055867823453783
1.164184149351706
1.0232893166612893
1.4970266952697644
1.632101636339799
1.8949004353384755
3.6772874805072355
5.610958593506702
7.117375864915011
0.5968898740172944
0.18588029169071116
0.9221403268599975
1.3596000454741883
0.47482269747414213
0.8037424513004514
0.4518923660010783
0.7977147375731517
0.8391470668502905
1.1076820356093262
2.6668552136922674
1.3707349147999375
0.24016746411203502
0.5531568883521403
2.913886934793286
0.889601893500695
3.2491457594908306
0.6569536482657324
3.290087002560305
4.174031975520298
6.8092985836229385
6.282940046965553
5.541832727111315
0.7740103966505992
1.9800627467267757
-0.21040791859222593
-0.04807312782158668
-0.11905608502344019
-0.3257951689049139
-0.2876621655691061
-0.4616528874105048
-0.5735715182094823
1.5334509918865822
0.6789210990334242
0.9782316576369898
1.1117390215003211
1.6254245061549588
0.661692647967287
0.4149457922630899
1.0898105721172306
0.15822480664044536
0.09693371241640146
0.14217818933077297
-0.16686266973395364
0.7276001062217606
1.4454619704431928
0.7905062425063176
1.3748607428644184
1.8500880735398977
0.4602170926148531
0.935512211415021
0.8891430878738421
1.5574470750281324
0.24812186989690227
2.056417122549652
1.3091233955363952
0.014227484997254763
0.13410420926436017
0.14695668006890977
-0.09996205788855482
0.18857005276010252
0.9957975574989251
-0.308288957536637
0.32896410921959585
1.7205461143165195
-0.0703043060620398
-0.07297196685220854
-0.32757615015526437
-0.1131896220437161
0.16357494500337214
2.4856530243208446
3.4095150637953386
-0.1331923074142617
-0.3480290276554584
-0.14707074882098994
-1.1892375608006092
0.39820305678727363
2.0495912411816617
0.5002836269295863
-1.2462948590694904
0.25207584191641563
0.9637180799273748
0.3084708740365927
1.9656540412340116
1.000316691553902
0.8336849751958533
2.6111878001343314
-1.6084074819668763
1.4495202387215056
2.9533480835253405
1.6195596092882025
1.6279922216002745
1.0065823546032817
0.8680613950444325
3.7090838832178115
3.066019725799306
3.136679650659322
0.3577340646831863
2.181966842930951
2.3049271846190513
-0.2733260151538122
-1.1581282696516024
1.4720829723885753
0.4593589144321122
0.827958909948092
0.8787980958462015
0.4984240233134758
0.5557917516062076
0.11300630248194607
0.1676928650276947
2.1539745672341337
2.2543523096385565
1.819123631643814
2.311664272334277
3.1843526689432107
2.2855852687279765
0.8083757779332011
0.28361245864525864
1.0322583338323656
0.07438538461837595
-0.17111202663183145
-1.6934107548432866
-1.6575811509684149
1.885665971260744
2.1276866012660802
1.7917455544182859
2.375123474814722
2.033997863719952
0.4392249000186915
0.9484237892158148
3.5219038689330016
2.87438514849631
2.7246339633245342
3.0880478819098713
2.1885979074895507
2.094634242108213
2.413716871141344
-2.181527666315889
-1.0269914369580488
-2.9212175682156696
-2.1676316149867323
-1.133506683173757
-3.5217268218994238
-3.2277470383471747
-5.225146059383885
-6.149157070735168
-4.766163354711368
-1.7770744519957524
-2.5466891053734413
-2.524525020154754
2.217407604924471
2.4908063673020218
1.6940958708149987
3.1097862757873007
2.964466578066068
4.106758220660819
4.468280319650704
3.409477450125003
3.4607405922783423
4.182999365813538
3.7264438843507537
2.7879461184489776
2.3063672106665662
1.7828745673011692
2.0857246828574962
1.8619614642040525
1.1446561942158924
1.8247168448041196
3.029785503837349
2.9741076817826144
3.159851949269176
2.366908033298227
2.0552361977087665
2.9072691265641133
4.488000469665813
3.155870069439326
1.255648299841378
3.156971286824077
2.298294376072291
-0.6333255200696437
-2.5630719031878737
-1.4608588507599516
-1.454023440477804
-0.8835978030482816
-2.0627111132310256
-0.8199627856645152
-0.501794827034631
-1.7799865585096495
-1.70972025635815
-1.8458618310828063
2.4793644212792056
0.2185353503136779
1.23912738786228
4.2231114896075415
-0.0521121791754711
2.3387115340112663
1.1966407293735677
2.5668724050117024
2.1464107454899253
0.1320161476724399
8.142703282801975
3.5946146235650964
-0.20277221878714913
0.36635921723774323
-0.40055020122981366
-1.1173003642887864
1.6633190569527148
0.6604481046413053
4.970477483249246
5.737963910738639
1.2877043564374222
3.5293486102167773
3.8026761409175633
-1.7786469281478947
-3.3207965919049114
-0.8386890393311877
-0.5048114008160789
-1.948984918412312
-4.855048729703188
0.2126421682980813
-2.5261326511090743
-4.258807474138645
-4.269474646974661
-4.053087224452666
-0.7546955422468229
0.32263934327447835
0.07295199663794548
-5.085836511481145
1.0710909412844665
1.1828782261454904
2.855603946598431
2.670804705940673
0.42389492778831267
-0.2914878023046628
1.000704316154307
2.8373810027848925
1.8650034398816764
1.8162541096461893
1.7759823326605702
1.939933298838215
-0.20040031248397894
3.0230718573184463
4.030103064236849
3.7307823893407726
4.158391862255784
3.590745366556106
1.3557613634078156
0.5299694941610689
1.7148891167831537
1.0196968681576024
0.925507929399995
0.9829554963261056
1.3386484330445674
3.355359536905686
-0.22913970350008306
-1.509352756476043
-0.3469401622478604
-2.0129176690708617
-1.0463113976724896
-0.6788880598023277
-0.5393114796027167
-1.4670910237155734
0.08140739751521481
-0.770365621550011
-0.6844478172638111
-0.8298652382907545
2.938803976657677
2.5350814335976617
0.029615745868532606
0.6592130907538947
2.578913793261387
1.2611842073695962
0.8034691117509374
0.15085153581651145
-0.6582048964112825
2.5841483522685533
0.7646778060034356
0.9987242587549433
0.5623336326440331
0.28278397145099116
-0.2237671850657919
0.23227461185516957
0.44215022187164826
2.063638891833505
1.9221913287411554
2.4932744700377025
1.8790795172144499
1.4340457470781443
1.8297980296215153
2.0037159145191743
1.403243035954046
0.782724005353352
1.2497813025044413
0.9447821216049681
2.6303654899284092
1.9298606603974875
2.2913092749467565
2.771057216912613
2.3245804023932988
0.13556964926365841
2.6781585162238257
1.042015574194167
0.011971774331751894
0.1284356482925543
0.08822840209090625
0.3581314099681827
0.5333825038162809
-0.4834331327605629
1.8818139426356104
-0.8115161792178824
-0.7995673375238943
0.6656596804455845
-0.25615935017768365
0.07223467202253453
-0.8055167516565174
-0.5237235953023586
-0.5677912022465749
1.3778980740565485
-0.387630322470778
-0.029728639267284862
1.26855843118476
1.8714262468673608
1.3873408813160992
-0.10881014616554929
-0.07897721661491938
0.08567452355695648
0.3376347503604854
1.7601762847640723
1.8215088415761596
0.7504418524570765
-0.12304482355913565
-1.2128452914471786
-0.9607574721576122
-1.2904132475904853
1.2860493662912504
1.3318498850177765
0.6651611437379833
2.408844619173199
0.7075194244798079
2.1949389576730094
1.1603025042594115
-0.0069907088722760136
0.04137335541603036
0.07098226892046311
-0.29731493742195364
-0.26770602391752085
0.1365970500446385
0.08232005928612504
-0.10597692410739268
0.6354714695950945
-0.09069695891548557
-0.9933435972366997
-0.7323970116695032
-1.6431039971881174
0.19351520740892783
0.7092008574952059
0.9740741343667837
0.9963765788455041
1.1254981899410903
1.536342695695482
0.012978073337365337
-1.2252065792432951
-0.9372891560788571
-0.23835503761236457
1.8636155438025779
1.5883773254903013
0.668316179412118
1.0187847130629826
0.6018927295275943
0.28974556180135935
1.4587481629781858
1.8371391076167378
0.28384062507716645
0.7902275248768931
-0.1785728571233885
-0.2877355461827077
-0.2397271565393199
-0.5217269293035879
-0.8520415705794482
0.9338691434637219
0.14747779085588228
-0.014179627698773206
0.7099383287668815
0.17057638642716189
0.045738400684616765
0.5905827913677008
0.015495657723713627
0.10177000992133867
0.3167687670081769
-0.0003607918840277738
-0.036085983188295305
0.729742140853466
0.11312009083181498
0.9478120147363964
3.63202634579441
-0.06103627981414783
0.5797563825189106
0.1875301379900174
-0.16387710296024702
0.8833336799350694
-0.6039708152247685
0.13137848859671353
-0.19596561125125025
-0.11522692859471538
0.7187493455033174
0.05188032558429004
0.5233378206370074
5.146012304790965
0.5220381144701577
1.359097442309885
3.399087583987967
0.676263657523416
0.23867451371120374
-0.26176467153414107
-0.6140910343759425
0.08119981804709615
-0.0040629629233146225
0.15567361974632948
-0.28191552406588277
-1.388091673345703
-1.7511957466805086
-3.032920689685226
-3.0436984001782306
0.9961262058025838
-0.21082205979943455
0.25314186509258646
-0.023206485171382497
0.06716800130869686
0.9604438460410734
-0.922606334904953
-1.9376150971128805
0.2698853379781694
-3.181030320152831
1.1608522855348278
-1.2341015965904893
0.9351298348758659
-0.9808738959539898
0.8525958637831363
-1.2010109489356768
-0.4292776562560742
-1.448985091567209
-1.986453964642136
-1.4300496381959995
-1.9982376696174196
-1.49005783800414
-2.2310719723372494
-0.36354485695133826
2.926392273340798
2.4464946516302803
-0.2254222503098304
-1.0532994805062006
-0.3539848076402955
-0.06357645051885229
-0.009028515277993032
-1.5253633817010535
-0.41035015924137347
0.5209671924759491
0.718425474136577
0.27489277691543496
-0.4383708664480423
-1.7304471934512513
-1.6499076200977427
-0.8011370187309046
-1.1531271506273333
-1.1491685869182238
4.406610101950889
2.8158907872735925
3.4119896644688876
6.969287479935722
7.619556460489363
6.071798463854675
-0.19037063417368272
1.5607481086318105
-0.11245876709400793
-0.24005032304472426
-0.22941390181571575
0.2032331933430372
1.0702137186503469
0.5906339197264568
0.011444821342313501