# vtk DataFile Version 1.0
Tissue data
ASCII

DATASET POLYDATA
POINTS 1593 float
0.0812603 -0.709892 0.78497
0.0632079 0.585339 0.899854
0.231028 -0.830475 0.575488
0.210229 -0.816539 0.609731
0.18904 -0.801524 0.642333
0.167781 -0.785403 0.673409
0.146642 -0.76829 0.70292
0.125549 -0.750344 0.730809
0.103831 -0.731047 0.758052
0.120122 -0.699965 0.790227
0.158208 -0.68943 0.794052
0.196117 -0.678041 0.796615
0.235225 -0.665296 0.797941
0.27539 -0.651102 0.797868
0.316425 -0.635374 0.796234
0.358106 -0.61805 0.792887
0.400172 -0.59909 0.78769
0.442335 -0.578491 0.780528
0.484282 -0.556283 0.771317
0.525692 -0.532539 0.760011
0.56624 -0.507367 0.746602
0.605614 -0.480915 0.73113
0.641302 -0.455023 0.7147709999999999
0.674782 -0.428863 0.697144
0.706623 -0.402083 0.678048
0.737287 -0.374284 0.657191
0.76774 -0.344435 0.633668
0.79585 -0.314484 0.60903
0.821601 -0.284664 0.583395
0.844938 -0.255121 0.557217
-0.250662 0.828305 0.566576
-0.225283 0.814969 0.603202
-0.199075 0.800033 0.638474
-0.172334 0.783494 0.672291
-0.145396 0.76537 0.704643
-0.118231 0.745837 0.735363
-0.0911058 0.725176 0.76429
-0.0643168 0.703465 0.791301
-0.038094 0.681072 0.81631
-0.0125434 0.65822 0.83935
0.0123095 0.635112 0.86049
0.0373926 0.610961 0.880572
0.0825163 -0.681606 0.814515
0.0835116 -0.65266 0.842446
0.0843516 -0.622634 0.8692529999999999
0.0851139 -0.590352 0.895868
0.0857931 -0.555736 0.922111
0.0863751 -0.51873 0.94777
0.0868429 -0.4793 0.972604
0.0871795 -0.437448 0.996342
0.0873688 -0.393212 1.01869
0.0873972 -0.346673 1.03933
0.0872576 -0.297959 1.05793
0.0869491 -0.247252 1.07415
0.086476 -0.194801 1.08769
0.0858392 -0.143978 1.09771
0.0850429 -0.0931629 1.10469
0.0841072 -0.04168 1.10866
0.0830949 0.0111263 1.10949
0.0819984 0.0666298 1.10688
0.0808608 0.121048 1.10087
0.07966 0.173987 1.09172
0.0784396 0.225156 1.07973
0.0775076 0.274332 1.06527
0.0764562 0.32062 1.04898
0.074833 0.36465 1.03102
0.0730558 0.406405 1.01167
0.0712098 0.445859 0.991219
0.0693342 0.483016 0.969926
0.0674464 0.517906 0.948019
0.065435 0.551848 0.924799
0.102609 0.575449 0.903809
0.141848 0.565323 0.906232
0.181569 0.554596 0.907004
0.222573 0.542642 0.906324
0.264691 0.529332 0.903976
0.307706 0.514584 0.89976
0.351347 0.498344 0.893484
0.395299 0.4806 0.884983
0.439222 0.461376 0.874132
0.482758 0.44074 0.860858
0.525548 0.418798 0.845141
0.567248 0.39569 0.827021
0.607537 0.371586 0.806592
0.643874 0.348169 0.785404
0.677804 0.324692 0.762942
0.709931 0.300847 0.738957
0.740749 0.276293 0.713091
0.771227 0.250135 0.684296
0.799273 0.224101 0.654433
0.824868 0.198365 0.6237509999999999
0.848009 0.173082 0.592472
0.86873 0.148125 0.56111
0.0431619 -0.701798 0.796941
0.00583596 -0.692927 0.807396
-0.0313576 -0.683303 0.816525
-0.0698355 -0.672606 0.824589
-0.109546 -0.660806 0.831423
-0.150757 -0.647904 0.836827
-0.193516 -0.633582 0.840697
-0.237329 -0.617697 0.842958
-0.281921 -0.600172 0.8434119999999999
-0.32698 -0.580977 0.841882
-0.372173 -0.560123 0.838212
-0.417142 -0.537657 0.832289
-0.461515 -0.513672 0.824051
-0.502369 -0.489852 0.814176
-0.541272 -0.465458 0.802543
-0.578817 -0.440172 0.789045
-0.615523 -0.413629 0.773455
-0.652552 -0.384834 0.755041
-0.687348 -0.355686 0.734945
-0.719791 -0.326419 0.713398
-0.749811 -0.297249 0.690645
-0.77739 -0.268376 0.666924
-0.802547 -0.239972 0.642478
-0.825352 -0.21219 0.617508
-0.845887 -0.185175 0.592174
-0.864211 -0.158859 0.566942
-0.119209 -0.856408 0.568453
-0.0928869 -0.842607 0.600096
-0.0666763 -0.826778 0.631155
-0.0410913 -0.809643 0.660718
-0.0160125 -0.791471 0.688573
0.00847357 -0.772503 0.7146319999999999
0.0323366 -0.752968 0.738864
0.0564549 -0.732229 0.762198
0.296286 0.817097 0.560408
0.276908 0.802117 0.59922
0.256661 0.78561 0.636724
0.235764 0.767691 0.672692
0.21446 0.748417 0.707067
0.192903 0.727917 0.7397549999999999
0.171195 0.706344 0.770671
0.149438 0.68388 0.79974
0.127796 0.660692 0.826931
0.106545 0.636938 0.852181
0.085161 0.61187 0.876457
0.0251169 0.5741 0.910286
-0.0121737 0.562415 0.919192
-0.0493168 0.550253 0.926761
-0.0877354 0.537214 0.933177
-0.128137 0.523323 0.938319
-0.171014 0.507939 0.941874
-0.215136 0.491272 0.943606
-0.26021 0.47311 0.9433199999999999
-0.30593 0.453397 0.940798
-0.351939 0.432134 0.9358339999999999
-0.397839 0.409378 0.928269
-0.443217 0.385242 0.918011
-0.487661 0.359889 0.905036
-0.528259 0.335109 0.8903989999999999
-0.566602 0.310131 0.873868
-0.603303 0.28465 0.855305
-0.638889 0.258328 0.834444
-0.67449 0.230232 0.8103899999999999
-0.707662 0.202239 0.7846879999999999
-0.738335 0.174554 0.75763
-0.766488 0.147359 0.729504
-0.792143 0.120808 0.700588
-0.815355 0.0950281 0.67115
-0.836197 0.0701089 0.6414489999999999
-0.854788 0.0461242 0.611685
-0.871255 0.0231516 0.582027
-0.885719 0.00120241 0.552742
-0.874725 0.102819 0.563107
-0.873727 0.062864 0.573066
-0.846806 0.255402 0.553328
-0.851745 0.212755 0.567809
-0.854977 0.170353 0.580778
-0.856552 0.128375 0.592259
-0.856431 0.0870312 0.602613
-0.815171 0.328211 0.563818
-0.82312 0.28466 0.580547
-0.82918 0.241065 0.595857
-0.833479 0.197667 0.609475
-0.836059 0.154657 0.621514
-0.83694 0.112183 0.632131
-0.776678 0.402238 0.570214
-0.787726 0.358571 0.589442
-0.796838 0.314416 0.607262
-0.804091 0.270091 0.623327
-0.809506 0.225815 0.637714
-0.813159 0.181816 0.650406
-0.815088 0.138232 0.661512
-0.731436 0.475843 0.5719
-0.745512 0.432948 0.593687
-0.757679 0.389061 0.614201
-0.767988 0.344529 0.632971
-0.776412 0.299619 0.650019
-0.783 0.254613 0.665257
-0.78778 0.20973 0.678721
-0.790809 0.165122 0.6904669999999999
-0.680397 0.54677 0.568533
-0.696932 0.506097 0.592557
-0.71196 0.46337 0.6158129999999999
-0.725201 0.419495 0.6374799999999999
-0.736608 0.374754 0.657456
-0.746192 0.329461 0.675578
-0.753941 0.283882 0.691824
-0.759876 0.238255 0.706191
-0.764038 0.192731 0.718732
-0.628206 0.609468 0.560757
-0.64529 0.573189 0.586297
-0.661012 0.535262 0.6110599999999999
-0.676532 0.493176 0.635822
-0.690554 0.449536 0.65899
-0.70292 0.404841 0.680291
-0.713548 0.359377 0.699665
-0.722401 0.31343 0.717065
-0.72946 0.26723 0.732504
-0.734749 0.220921 0.746019
-0.59081 0.634463 0.575874
-0.60848 0.598744 0.60254
-0.624904 0.561284 0.6282639999999999
-0.640076 0.521494 0.653564
-0.654348 0.478642 0.678325
-0.667325 0.434365 0.701113
-0.678781 0.38905 0.721872
-0.68858 0.343005 0.740588
-0.696649 0.296465 0.757284
-0.702981 0.249536 0.771997
-0.531759 0.692281 0.560963
-0.551897 0.658485 0.589285
-0.570138 0.623359 0.616968
-0.587176 0.586422 0.643751
-0.602681 0.54733 0.670241
-0.617079 0.505894 0.6958529999999999
-0.63039 0.462612 0.719822
-0.642396 0.417936 0.741889
-0.652897 0.372228 0.761963
-0.66174 0.325725 0.780068
-0.668874 0.278439 0.796266
-0.489042 0.715357 0.572031
-0.509069 0.682426 0.602069
-0.528076 0.647509 0.631209
-0.545913 0.61065 0.659449
-0.562536 0.571878 0.686657
-0.577915 0.531254 0.712651
-0.592016 0.488941 0.7371759999999999
-0.604752 0.445195 0.760008
-0.615963 0.400307 0.781033
-0.625413 0.354487 0.800326
-0.632868 0.307482 0.818214
-0.445427 0.736569 0.581618
-0.465129 0.70469 0.612983
-0.484166 0.670556 0.643545
-0.502424 0.634268 0.673085
-0.519769 0.595954 0.701407
-0.536083 0.555783 0.7283
-0.551245 0.513959 0.753576
-0.565142 0.470737 0.7770509999999999
-0.57762 0.426425 0.798604
-0.588384 0.381399 0.818264
-0.596741 0.33397 0.837552
-0.381889 0.784182 0.556577
-0.401354 0.755834 0.589593
-0.420605 0.725079 0.621995
-0.439436 0.691971 0.653685
-0.457739 0.656587 0.684383
-0.475375 0.619058 0.713852
-0.492209 0.579549 0.7418669999999999
-0.508119 0.538261 0.768213
-0.522986 0.495426 0.792704
-0.536719 0.451301 0.815165
-0.549234 0.406165 0.835456
-0.559268 0.359295 0.854957
-0.338275 0.800526 0.561581
-0.357117 0.773237 0.5956279999999999
-0.375802 0.743599 0.629055
-0.394266 0.711603 0.661703
-0.41238 0.677288 0.693402
-0.430019 0.640752 0.723921
-0.447054 0.602138 0.753031
-0.463363 0.561622 0.780513
-0.478838 0.519402 0.8061659999999999
-0.493383 0.475676 0.829825
-0.50696 0.43059 0.851356
-0.519603 0.383965 0.870769
-0.29456 0.815228 0.564852
-0.312961 0.788819 0.599887
-0.331064 0.760264 0.63416
-0.349013 0.729403 0.667654
-0.366759 0.69623 0.700218
-0.384189 0.660806 0.731662
-0.401183 0.623243 0.761768
-0.417627 0.583689 0.79032
-0.433411 0.542315 0.817115
-0.44844 0.499291 0.841983
-0.462629 0.454731 0.864812
-0.475889 0.408524 0.88563
-0.269007 0.802701 0.602378
-0.286619 0.775141 0.637393
-0.303998 0.745392 0.671603
-0.321243 0.713378 0.704913
-0.338295 0.679119 0.737159
-0.355056 0.642695 0.768143
-0.37142 0.604227 0.797658
-0.387282 0.563862 0.825504
-0.402543 0.521751 0.851509
-0.417103 0.478005 0.875551
-0.430805 0.432604 0.89763
-0.242606 0.788352 0.638811
-0.259462 0.759649 0.673639
-0.276147 0.728763 0.707587
-0.2927 0.695673 0.740521
-0.309073 0.660426 0.772264
-0.325179 0.623113 0.802623
-0.340925 0.583857 0.831405
-0.356214 0.542794 0.858439
-0.370939 0.500032 0.883594
-0.384934 0.4556 0.906832
-0.215555 0.7723 0.6738419999999999
-0.231719 0.742473 0.708351
-0.247714 0.710516 0.741877
-0.263586 0.676439 0.774267
-0.279292 0.640305 0.805351
-0.294758 0.602213 0.834948
-0.309896 0.562277 0.8628899999999999
-0.324604 0.520601 0.889044
-0.33872 0.477235 0.913346
-0.188116 0.754634 0.707322
-0.203578 0.723741 0.741366
-0.218894 0.690794 0.774311
-0.234093 0.655827 0.80601
-0.249146 0.618914 0.836299
-0.263982 0.580146 0.865025
-0.27851 0.539613 0.892056
-0.292583 0.497369 0.917315
-0.160426 0.735468 0.739148
-0.17522 0.703593 0.772562
-0.189861 0.669753 0.804781
-0.204402 0.633996 0.83566
-0.218813 0.596408 0.865044
-0.23302 0.557045 0.892825
-0.246898 0.515952 0.918924
-0.132659 0.714961 0.7692
-0.146791 0.682203 0.801843
-0.160793 0.647549 0.833221
-0.174663 0.611097 0.863175
-0.18844 0.572929 0.89157
-0.201992 0.533002 0.918386
-0.105015 0.693334 0.797357
-0.118509 0.659733 0.82916
-0.131817 0.624345 0.859631
-0.144983 0.587289 0.888594
-0.15812 0.548613 0.915932
-0.0778428 0.670746 0.823551
[...]
CELL_DATA 3055
SCALARS gaussian_curvature float 1
LOOKUP_TABLE default
1.0076233872053817
1.0173838453645718
0.9857339784330907
0.9968698134912612
0.9991824146103038
0.9579632123169735
0.9734451518370731
0.9472421092966778
0.9529635906575875
0.9265228204431348
0.9350519786112935
0.925500995509746
0.9417470689284215
0.9192896175370286
0.9233780309641448
0.9410643662769005
0.9311644192675687
0.9281691154970051
0.9510229605676341
0.9368436057617294
0.9464379109245438
0.944922627014186
0.9302852419137799
0.9555648046346092
0.9159944542073812
0.8823436957933691
0.8568402920726028
0.8530537031050194
0.8770418229154278
0.8272351460634415
0.8694393090575572
0.8698741082326513
0.852949507959365
0.8779833423489981
0.8347951919437024
0.8998341759356577
0.8721845520586992
0.8982676553314906
0.8371279936738414
0.8390848330383724
-1.2209905372522787
-0.8956185534427394
10.159975837480252
0.9916040969648218
1.3118339940540729
0.986610170783186
0.981468084062898
12.372505042331873
24.28698208817321
1.0013061354661237
1.0012407061006452
1.3066668860973787
0.8161266250118844
0.9910149616522379
0.9860555803309365
0.9818667043076212
0.9820494097066081
0.9954015580319451
1.0006988056641952
0.9314732921237792
0.9217186878990464
0.9808152519071022
0.9399410356919172
0.9759618236121665
0.9349049019979947
0.9852884661309934
0.9907265149112195
0.9921504736062421
0.9796765594137755
0.975698069784461
0.964508706727427
0.944907510742921
0.9747750693000586
0.9776038214714513
0.9823407895230479
0.9678360194781044
0.9904416526629971
0.9364342125984282
0.9720232525164755
0.9652397552620533
0.9756188050935364
1.002575339652025
1.0086544691862858
0.953136418254623
0.9610934865236981
0.9272497636704484
0.9538255305925065
0.9374898591098795
0.9208077298974364
0.9118257588306277
0.9683548953418892
0.9394590790390522
0.9640056138938904
0.9514454690736803
0.9780448328354889
0.9304095129799854
0.9219982592778007
0.9791135184149921
0.9554597508289182
0.9776954163243536
0.9666017935584899
0.9882605939682361
0.982842626940734
0.9517076228747803
0.9386437750604756
0.9917759261123222
0.9728721429884399
0.9915311315592373
0.9837209712012188
0.9978827937510821
0.9929493595163574
0.9704106196093165
0.9603881422252285
1.0027484845301018
0.9901450189305612
1.0044975304230845
0.9997042251815624
1.0070228214596137
1.001912336127509
0.990197807892053
0.9813122367835873
1.0135756750031573
1.007165730869862
1.0163091526678785
1.0146925137761051
1.0148620707146767
1.010058263064116
1.0089150848700488
1.0015063681432412
1.0221607872977052
1.0217151789150951
1.0259975919788467
1.0271686224880099
1.0214345896867452
1.0168693507684379
1.0256550083127047
1.0203816971739017
1.0294079873723208
1.0339141924783466
1.033242084111358
1.0365772587082207
1.0258989686703717
1.0217623756659373
1.0387945125866116
1.0359887719938845
1.033327779914515
1.0420600659668824
1.0377704925651108
1.0431676040206155
1.0289261133483265
1.0253313988432198
1.0486744724752155
1.0480719853248188
1.0362104757748112
1.0484369575391899
1.0401895181258642
1.0470188884347384
1.0301135323133348
1.0272718825374456
1.0555435699449305
1.0568886229346892
1.0373384574636348
1.0506695499702206
1.0421101649490816
1.0486118871467935
1.0316171594463137
1.028371276647067
1.0581083397146114
1.06156429058487
1.0402229577499242
1.0528346386084575
1.0445378221464803
1.0506477808073018
1.0334005441385905
1.0295664533204267
1.0594647078252144
1.062680746107941
1.0417023922407644
1.053449257528518
1.0442451989816508
1.049882105608583
1.0346692884353994
1.0306823047297815
1.0593738443545084
1.0632024368500492
1.0407270079543869
1.0512368027055468
1.0416423631859115
1.0465152513101394
1.036824211093652
1.0333092983155514
1.056929330781724
1.061499220510751
1.0389415106212805
1.045504609413017
1.0378942736194057
1.0395844842869142
1.0360284662969466
1.034826522000843
1.049834217879132
1.056537387852432
1.0357372580116446
1.037743409536788
1.0352419131622717
1.035557854019906
1.274446104721188
1.273690076004615
1.0415937031996794
1.047764386415921
1.2635625397401147
1.0342864343629474
1.2634578004920716
1.03386575425727
0.7133981921752258
0.723786412306926
1.0355957774742457
1.040717490794096
0.734882403353911
1.0319911668190862
0.7254108475681492
1.252111657268126
1.0313903789214398
1.0345743094709219
1.2490811641671595
0.6320049970358863
1.0281959995230694
1.0306257047263894
12.47650675110128
13.092682987905972
1.0272960691964892
26.341904368061225
-3.726235613113424
10.023335893722246
8.238736606112505
0.9856296118082398
14.728998017769493
0.9844211998790431
0.9782180990046263
12.95279243999482
24.170972733051535
0.9924679111384237
0.9946585200990745
21.898040034658763
0.9843660511184371
0.9717701494680717
0.97652721505418
0.9701344142782313
0.984474304194098
0.9913677522848879
0.9106994080989703
8.086189374524796
0.9689566031468037
0.9234454055717907
0.9579079341076039
0.9187895373085395
0.9716743623198979
0.9793532273029353
0.9762492221657403
0.9618674895030794
0.9527029570986062
0.9427233353040205
0.9202960058831212
0.9494347808875998
0.9599971352517115
0.9679198714338034
0.9598631871243636
0.9887332057228323
0.9115132711753684
0.9530567965542441
0.9117365461235458
0.924141296497943
0.9387587264749562
0.9548356393358142
0.9860811360361311
0.9995989721898298
0.9266200379092011
0.9450827162402545
0.9202702895553334
0.9263282175119898
0.9183745949085624
0.9307365584224949
0.9430718151105286
0.955154734850104
0.8950326460577328
0.9130197643480338
0.8827623979581632
0.8946915882918078
0.904414565204453
0.9214067657014149
0.9239277281508649
0.9352252801850951
0.8730006612478709
0.8950710821046663
0.8656412474458466
0.8757824779689972
0.8594820023392675
0.8786256581962801
0.9080013995200038
0.9185298695099764
0.8527145938993749
0.8811490053821404
0.8474313951373942
0.8657245760970089
0.8540098246928889
0.8534178193307571
0.8998866024045538
0.907450392406748
0.8389391272388393
0.8812204280088626
0.8254924491074607
0.8352799477995296
0.9018260593436498
0.9050678044542093
0.8198947265748793
0.8874883105155449
0.9115005340885729
0.8888662603542907
0.8932798985234616
0.9084580483978544
0.9097528956125732
0.8851304168141658
0.9017047006613663
0.8590693817712618
0.8712300274492915
0.8853670107623373
0.8860603686117436
0.9214410903488965
0.8615067246216668
0.8964362366981903
0.8312107235806109
0.853979589979105
0.8656320496011687
0.8634313006989351
0.9267511926237247
0.9212813730623561
0.8401532098749901
0.8967561047155599
0.8057729250680242
0.8396069535101001
0.8488159643664537
0.8439988030515764
0.9378696884737725
0.925408129662852
0.8219591175809507
0.9009457536402129
0.7826596471900777
0.827812254807264
0.8337639812086534
0.8262405431871904
0.9547317337900729
0.9345065174181728
0.8054959503412851
0.9087509533003353
0.7598047946018103
0.8179071899436743
0.8201431040723155
0.8091116645488108
0.9756200772863328
0.9484673589431216
0.7916933685186494
0.9239013031255301
0.7418056877810361
0.8159112270460529
0.8114739020206112
0.7942324818348026
1.0063623712608405
0.9672373820649822
0.7811673648971061
0.945203211079723
0.7265784387921785
0.8165087457097788
0.8046513945188225
0.7850702509047143
1.0401761910140466
0.9933452751156865
0.7742861601993523
0.9664664045727014
0.716832925343639
0.819082862799388
0.7983888144329627
0.7741651226475055
1.0788139333484232
1.0238292544198238
0.7715303266061357
0.9939584212426364
0.7072780149932795
0.8274561721740314
0.7982149847728511
0.7676202377439652
1.1200471002236434
1.0575190705561166
0.7654409853392778
1.026798291321257
0.7087328092873655
0.8499119580885928
0.7987551194732236
0.7672768072939408
1.1747898054569748
1.101536365290756
0.7789789344620668
1.061323666347246
0.7305009891211127
0.8716665722050646
0.798376047518675
0.7614440564779195
1.2093797901362335
1.1459595960132982
0.7968084857199671
1.0908891973071477
0.7439854868373755
0.8969006153406042
0.8097787181371234
0.7628683345948772
1.2442616012323975
1.1730950999193022
0.8052025625077657
1.1188523899638243
0.7374434276825759
0.8981781266354057
0.8203360756771482
0.7720892324239145
1.2825078509909762
1.2139284802930057
0.799083980714228
1.15173202759274
0.7125779954684168
0.904491343394099
0.8168241833663941
0.7703171435041244
1.3331020800093971
1.2432036400792148
0.7726026006108556
1.1650810529448519
0.6730309023856491
0.8735960067939632
0.8077188896042775
0.7654344871140047
1.3617931571471575
1.2825735000130618
0.7505272643541878
1.1297147061503217
0.6622335200513103
0.8408558574391299
0.7937831765812067
0.7514031036060901
1.332357742324933
1.2729511471708803
0.7454403075568519
1.0896132299716057
0.6611484689632745
0.8266990539902088
0.7907139018534549
0.7507630265749323
1.280781317826759
1.2346669814688949
0.742597133832684
1.0417650012197002
0.6627110475011827
0.7963283298612647
0.7832516254713311
0.7470765548985246
1.2163215709269566
1.1924237115526186
0.7329826060710024
1.015899839321058
0.6790301204482234
0.8283300713381972
0.7773555948933206
0.747738527962148
1.1766775030746883
1.1316625633221513
0.745566222192574
0.84874320096987
0.7565325738303744
0.7104096017176966
0.772856778172166
0.7506936652501335
1.0088455010940929
1.1492100352160504
0.7884768283624719
0.733731628031318
0.8030464768152978
0.7944242485968218
0.7624960425508592
0.7578423439983538
0.8360494207002445
0.9728296945108461
0.7857667141387431
0.7560113013987064
0.8102451411682361
0.7891119566466755
0.7605799478807591
0.7518789247457013
0.841580150392065
0.982310890259107
0.7921858566003577
0.7550994531355631
0.8103747812449499
0.7944215623017159
0.7733758743783661
0.7662483926882606
0.8244997792962866
0.9440811318007576
0.7999763289810744
0.7666891559890748
0.8236464922673405
0.8063125382185751
0.7792835168328701
0.770871986874754
0.8223938606188228
0.9195265930921873
0.8164760559940241
0.784806684187187
0.8396820731228207
0.8253466553647493
0.7965846995934207
0.7830623237185331
0.8270373809728588
0.904247939633995
0.8367716797103939
0.805511661679036
0.817207064298495
0.8002261013103187
0.8354133546485261
0.8974790451199113
0.8199550168015677
0.8904112468091159
0.9501453024611693
0.926402524281266
0.9317074526211678
0.9547019061258074
0.9246750925827882
0.9420964703630441
0.926384858069031
0.9487935383959092
0.9277769977619941
0.958257498466897
0.9471201560497569
0.9471543427283644
0.9791858808082814
0.9490376740478981
0.9821343588034843
0.973002692677016
0.9871010705189229
0.9728697562104034
0.9406732355906617
0.9401820439640911
1.0030607653576067
0.9889523378918812
1.0101256854248484
1.0051489240855913
1.007887528096369
0.9948763112528884
0.9926489656083402
0.9683348819362385
1.02725247624155
1.022047412071726
1.0360682009483826
1.0358398981178154
1.027604699325564
1.015304671247625
1.0273403936992531
1.0141385334295774
1.0474565422133613
1.051516627933487
1.056990210792318
1.0612785993430107
1.0435875470177423
1.0325514288367774
1.0600788783598365
1.049695130171692
1.0627262098246149
1.0752302847505097
1.07201012844879
1.0802258148239918
1.0552873506325213
1.0456823564046052
1.0855702476535236
1.080180812672374
1.072583458043987
1.09150833489393
1.0815651491447287
1.0922743396194696
1.0627200467638058
1.0547078579765152
1.1038534810067548
1.1029109238398307
1.0784592985255816
1.1012401739519757
1.0859719532717138
1.0980436382233671
1.0668264095505382
1.0600688488895043
1.113677525670075
1.117056837450394
1.079073133281552
1.1036562710848656
1.0848835219234763
1.0973949747751366
1.0670324208798854
1.062298351895004
1.1163935131959661
1.1232182320525672
1.076417651255708
1.100803776296404
1.0820839290670183
1.0939586012560538
1.0649154020141651
1.0613405602802668
1.1131462193825743
1.1224746599724074
1.0743438437660557
1.0965459712143986
1.0784943520984913
1.0888218073577987
1.062864513243515
1.0591023493029348
1.1068644731984967
1.116619546326322
1.0706933456160503
1.0894041712185327
1.0720105769517272
1.0803939472949022
1.0611702134207128
1.0574918893806131
1.0995171548061342
1.109253292929498
1.0635652697390428
1.0791516213722687
1.0624090184738262
1.069611999763877
1.055763350917488
1.0546855259348349
1.0871017236849163
1.0984570331951513
1.0542435764554705
1.0661453598874604
1.0520397641680292
1.056738566309968
1.0478565806084283
1.0482201038052295
1.0725784836972945
1.0839952258863588
1.0452425354007808
1.0527134382758296
1.0431258588950107
1.0458979596281204
1.040862741565995
1.0412729744862013
1.0586797519972178
1.0691380038411906
1.0393271762123673
1.0432605342770624
1.0371477511602827
1.0383090084918682
1.0384276563507426
1.0378465451986
1.047565187608994
1.05616892668144
1.035398345819793
1.0359639771394415
1.0372005924104
1.036604966398463
1.0353706932083868
1.0362205786872518
1.0392756800793366
1.0459253647636948
15.035274766591439
1.0369149326274303
15.252540479957378
1.2547762720053064
28.806162860525564
14.80806103373312
1.0341985480632179
1.0372002847741455
1.2487498193161848
0.6202305065332969
1.029671153302768
1.0329812214276775
12.755465092283465
13.38107924216911
1.026765990405523
27.07073689029089
0.9144536966807038
0.8968287309613809
0.904524835800075
0.9234065253687074
0.9329011836698375
0.8847513412415127
0.9066689470326201
0.8855392984700843
0.8997607994224976
0.8752778261065943
0.9205600259330011
0.9273687433884594
0.882314846239499
0.9100479264086943
0.8808096196806323
0.8943211988974141
0.8686363044194487
0.8623872415151155
0.928646535108101
0.9322504870222854
0.8662286499007913
0.9095540372608689
0.8785376661850983
0.9083514743283942
0.8634451333026157
0.8643475612624064
0.9215017107542693
0.9248674810902213
0.8979784288921016
0.9336096144898596
0.924212628685298
0.93003000613976
0.8728667762205164
0.8506424969153376
0.9434013436744864
0.9300908770064213
0.926208999830281
0.9471708715353035
0.9363398772886233
0.9514843715391837
0.9357360883441056
0.9086280645275375
0.9597845056726879
0.9524353694617712
0.9507876213208349
0.9716408590734561
0.9703895033289645
0.9760982468310252
0.9473801879391885
0.9424595324208016
0.978216796755243
0.9706739433583551
0.9830701997019835
0.9908175391368196
0.9954109776360153
0.9974495735687905
0.9853434846824606
0.9692553549277952
0.994239084617746
0.9860957299937387
1.008910573166977
1.0090922918193481
1.019434645300731
1.0175777680203266
1.0138821381356948
1.0026558275852102
1.0092676649195549
1.001046492149924
1.0320358749127738
1.0256121858545408
1.039001933356785
1.0344351215789565
1.0389616881079813
1.0313320234646566
1.0221255016774344
1.0142664569434272
1.0507125860223119
1.038868452356923
1.055782311966001
1.048504990078441
1.0599396305607833
1.0551547910904644
1.0328573542881327
1.0249373393330599
1.067211713087501
1.0507428162586978
1.0698461932266896
1.0606546182854466
1.0769508199788342
1.0747484633958058
1.042233433041667
1.0339845087926198
1.0796141959043117
1.060593726320566
1.0786773592594974
1.0688484646169947
1.0898130058929851
1.0897841101066965
1.0506898676487346
1.0422413763965848
1.0853609643075934
1.0651936145428076
1.0803728341516536
1.0700343790293707
1.0956454205521795
1.099160625492757
1.0554742303693048
1.0492252217716604
1.082264037031803
1.0631482948296833
1.0736290150013001
1.0648517279214635
1.0923550353732188
1.1007482887376558
1.0526779753050548
1.0498446753312392
1.0734003077067746
1.0566016170810444
1.0655404032293827
1.0575189996834888
1.0830486242517363
1.0933683298876777
1.048197593030203
1.0459773843459934
1.0653779341187994
1.0510213953450371
1.058142886856604
1.0518077516287354
1.074214242480913
1.0840250281364576
1.0439564659791496
1.04205004626676
1.05733213083173
1.0467437432189801
1.0511031458319597
1.0468498934470782
1.06462592034934
1.0742729847363273
1.0413028435513763
1.039301922595244
1.049566295327829
1.0429015243654458
1.0446817648524975
1.0422702462749962
1.0555983844384496
1.0644290244601902
1.038689933565996
1.0371974029800244
1.042715910236885
1.0391115526271497
1.0389798497923706
1.0377870107601368
1.046693933296031
1.0546918770222642
1.0376619245563938
1.0366090274047903
1.0363363236766148
1.0370730288843115
1.0334475142930826
1.035377058533013
1.038878920424133
1.045500469599035
1.0378703295572966
1.0371346833623658
1.0307506750990234
1.0358851951909336
1.0317199658837408
1.0349249417357202
1.0322569669869524
1.0374964029285298
1.2490165758545482
1.2493057398696128
1.0315349914210665
16.150146044131024
1.2282399169831528
16.343645993841132
1.0293224647257784
1.0310137310763816
15.670495042774135
0.7684053210424446
1.222793067136505
0.5826876256497886
1.025111563643653
1.0283458867950124
12.656052440175106
13.293619529154258
1.0225732111360883
27.05173081236652
-10.087058244519413
-1.942473869362201
6.244057694910634
-7.143976592166812
1.0429356079609566
1.0444997588802107
1.0868275838507662
-23.786857224042368
9.18254497719521
18.57260627729125
0.9663864648389187
0.9194642698003372
0.9929120608352371
1.0446861591322023
0.982823220684901
0.9922694940113106
1.0031937311065575
-15.588099202724027
1.0054410650063397
0.9710333466028656
0.9897813173944245
0.9889651999029883
0.9787564510447957
0.9684940602269498
0.995015875158303
0.9983394487201
1.0141532728801539
0.9782124728626134
0.9819628139012104
0.9607170678788179
0.9682566559995163
0.9572733007949696
0.9930646683207272
0.9950928632281908
0.955076862129896
0.9880419274551934
0.9726176676737273
0.9476213644212248
0.9576882953185247
0.9436753472705688
0.9821019884131613
0.9888428311584669
0.9408094188402456
0.9448211494650682
-20.11443665881576
-3.030087655354044
-3.5187585058296893
-16.094232614208952
1.0001281584091017
0.9874782149874515
0.9974899841437921
-15.77863352121896
0.775120275591758
1.0028561071303652
1.2665190747886665
0.9816750744308195
0.9980242631624339
0.9851183813676084
0.991455800942882
0.9788539776774579
1.3002562112240819
1.000655144445063
1.0028488141476848
0.9766406237814582
0.9897840126469226
0.9731620877502793
0.9799680570404701
0.9823720219010867
0.9880286827338751
0.9953157756411745
0.9996184452197631
0.9662596334342775
0.9802561261432357
0.9628353659201672
0.9700258893389346
0.9623003478965542
0.9749342003321846
0.9890876515020115
0.9943313453934977
0.9547641771471799
0.9720596552257919
0.9495558790106713
0.9596608336705159
0.9273283224833938
0.9314402257186577
0.9818170731945852
0.9886148326665036
0.9314810772932829
0.9617198710696484
0.9261195486941589
0.9462533878106802
0.943247557778619
0.9338865048322214
0.9734420940607702
0.9811404746304309
0.9144233239225451
0.9479746132068947
0.9225727675363047
0.935990217704133
0.9162899595552072
0.9397526648121572
0.9630901176468103
0.9730911152417174
0.9177461850955546
0.942267314057835
0.8969466016214922
0.9080502804159442
0.9115296391001668
0.9182228571735789
0.9513103761486286
0.9601487842348422
0.8123316006376573
0.8104350514998147
0.8237004300567319
0.8096276796641781
0.8039501955353554
0.7917739942806443
0.8410510546860226
0.8021666819777549
0.791009832444209
0.7672017537903535
0.8175634367802453
0.8059315593811007
0.8113017625400272
0.8415927502604644
0.7888288904754295
0.8059401332792973
0.8878639862096749
0.8737195508045046
0.9308731865278477
0.928360628521822
0.9039947821905738
0.8539861628569626
0.803770406475737
0.7576095517374093
0.9408647678434452
0.9257639508155763
0.9424840467577995
0.9298957877359564
0.956313256338595
0.9624524710038969
0.9599538866635833
0.8926014200410616
0.9781993482495644
0.9624229725580589
0.993358639347997
0.9901705226783348
0.9838274234781559
0.9635606104815408
0.9560188982901867
0.9576816493160911
1.0161978693260436
1.0138764448854727
1.0313560633422114
1.0322227555713028
1.0172831435621914
1.0000719888127363
1.0223567157072946
0.9922467192322844
1.0491093133352256
1.0569786995890247
1.065206540898536
1.072209234923244
1.0447187448496795
1.0280507690928131
1.066953128693278
1.050677455497378
1.0761055378981659
1.0942487444065332
1.0916008074820112
1.1027413199656708
1.0667341321216144
1.0514445666364387
1.1068216618914797
1.0947565815124436
1.096151774276806
1.121418565463055
1.1106860519797908
1.12481233068238
1.0838607595566123
1.069938386985266
1.137389184009663
1.1312848559972253
1.1100835457516123
1.1402172551514491
1.122641457950114
1.138648888647362
1.095273886075359