# vtk DataFile Version 1.0
Tissue data
ASCII

DATASET POLYDATA
POINTS 1593 float
0.09052 -0.737145 0.784478
0.0701854 0.609616 0.908023
0.247373 -0.848605 0.565334
0.225146 -0.836558 0.600057
0.203017 -0.823323 0.633299
0.181184 -0.808729 0.6654019999999999
0.160085 -0.79282 0.696312
0.138561 -0.775869 0.725857
0.115563 -0.757868 0.755116
0.132356 -0.724914 0.78995
0.170706 -0.71264 0.79382
0.208709 -0.699235 0.796517
0.247858 -0.68443 0.797908
0.288015 -0.668213 0.7977799999999999
0.329003 -0.650561 0.795968
0.370605 -0.631451 0.792325
0.412568 -0.610869 0.786732
0.454609 -0.588823 0.779094
0.49643 -0.565347 0.769346
0.537717 -0.540504 0.757458
0.578155 -0.514391 0.743439
0.617437 -0.487136 0.727337
0.653051 -0.460614 0.710376
0.686479 -0.433937 0.692151
0.71829 -0.406719 0.672451
0.748949 -0.378541 0.650957
0.779406 -0.348327 0.626756
0.807538 -0.318075 0.601386
0.833286 -0.287978 0.575091
0.85663 -0.258212 0.548088
-0.269046 0.845996 0.5563859999999999
-0.24209 0.834639 0.593486
-0.214537 0.821792 0.629141
-0.186831 0.807197 0.6636259999999999
-0.159721 0.790595 0.697288
-0.131975 0.772378 0.729727
-0.103079 0.753503 0.760577
-0.0729824 0.73233 0.790136
-0.0436301 0.709989 0.817589
-0.0147975 0.686708 0.842797
0.0131987 0.662681 0.865785
0.0414158 0.637128 0.887423
0.0923755 -0.707821 0.816666
0.0938941 -0.677783 0.846846
0.0951363 -0.64658 0.87565
0.0961616 -0.612947 0.904124
0.0969968 -0.576838 0.9320539999999999
0.0976624 -0.538225 0.959212
0.0981719 -0.497103 0.985356
0.0985298 -0.453487 1.01023
0.0987328 -0.407423 1.03355
0.0987708 -0.358999 1.05502
0.0986295 -0.308348 1.07432
0.0982981 -0.255663 1.09113
0.0977732 -0.201196 1.1051199999999999
0.0970802 -0.148626 1.11543
0.0962399 -0.096157 1.12264
0.0952722 -0.0430521 1.1268
0.0942355 0.0114014 1.12778
0.0930928 0.0687962 1.12523
0.0918561 0.125065 1.11919
0.0904845 0.179789 1.10994
0.0889626 0.232643 1.09781
0.087243 0.283378 1.08317
0.08536 0.331918 1.06633
0.0833963 0.378117 1.04762
0.0813632 0.421902 1.02736
0.0792736 0.463247 1.00584
0.077133 0.502164 0.983313
0.0749463 0.538701 0.960006
0.0726517 0.574324 0.935078
0.11438 0.598454 0.911245
0.15572 0.586516 0.91245
0.195494 0.573805 0.912537
0.236414 0.559779 0.910995
0.278331 0.544437 0.907701
0.321047 0.527755 0.902491
0.364325 0.509731 0.895215
0.407892 0.490379 0.885742
0.45144 0.46974 0.873969
0.494641 0.447882 0.8598359999999999
0.537161 0.424902 0.843326
0.578666 0.400924 0.82447
0.61884 0.376094 0.80335
0.655133 0.352117 0.781546
0.689079 0.328187 0.758496
0.72127 0.303961 0.733926
0.752185 0.279072 0.707458
0.782788 0.252591 0.677996
0.810949 0.226274 0.647448
0.836626 0.200279 0.61608
0.859819 0.174757 0.584145
0.880555 0.149829 0.5518879999999999
0.0479015 -0.730039 0.797938
0.0060285 -0.721538 0.809577
-0.0357356 -0.711592 0.819479
-0.0789265 -0.699885 0.8277559999999999
-0.123181 -0.686533 0.834247
-0.166199 -0.671281 0.838996
-0.208595 -0.654534 0.842815
-0.251975 -0.636199 0.844786
-0.296116 -0.616355 0.8447939999999999
-0.340732 -0.595015 0.842693
-0.385491 -0.572214 0.838383
-0.430046 -0.548018 0.831789
-0.474041 -0.522527 0.8228759999999999
-0.514578 -0.497495 0.812388
-0.553227 -0.472104 0.800178
-0.590583 -0.445992 0.786129
-0.627167 -0.41875 0.770003
-0.664145 -0.389329 0.751033
-0.698951 -0.359661 0.730391
-0.731452 -0.329958 0.7083
-0.761569 -0.30042 0.684993
-0.789266 -0.271232 0.660712
-0.814551 -0.242553 0.635691
-0.837469 -0.214523 0.61016
-0.858097 -0.187256 0.584327
-0.876527 -0.160846 0.558376
-0.136022 -0.881595 0.548877
-0.105514 -0.871463 0.580001
-0.0751692 -0.857444 0.613247
-0.0463917 -0.841299 0.645841
-0.01827 -0.823391 0.676985
0.00908398 -0.804034 0.706267
0.0358036 -0.783587 0.733382
0.0627253 -0.76143 0.7593179999999999
0.313886 0.832775 0.551225
0.293266 0.81927 0.5910219999999999
0.2719 0.804236 0.629435
0.250184 0.787705 0.666328
0.228419 0.769633 0.701849
0.206781 0.75011 0.735959
0.185066 0.729305 0.768583
0.163617 0.707409 0.799491
0.141649 0.684676 0.828571
0.11914 0.661729 0.855865
0.095128 0.636876 0.882169
0.0273445 0.598302 0.920129
-0.0147231 0.58611 0.929967
-0.0565963 0.572954 0.937746
-0.099742 0.558338 0.943716
-0.143063 0.5423 0.9475979999999999
-0.18593 0.525362 0.949743
-0.22975 0.50667 0.950139
-0.274396 0.486459 0.948492
-0.319594 0.464789 0.9445979999999999
-0.365026 0.44173 0.938305
-0.410336 0.417377 0.929499
-0.455153 0.391858 0.918114
-0.499103 0.365334 0.904145
-0.539313 0.339636 0.888703
-0.57738 0.313924 0.871494
-0.613917 0.287849 0.852344
-0.649447 0.261034 0.830952
-0.685101 0.232499 0.806374
-0.718408 0.204141 0.780173
-0.749277 0.176146 0.752623
-0.777664 0.148678 0.723997
-0.803568 0.121877 0.694568
-0.827026 0.0958628 0.664593
-0.848107 0.0707293 0.634312
-0.866903 0.0465503 0.60395
-0.88353 0.0233759 0.573708
-0.898112 0.00123459 0.5437609999999999
-0.887078 0.103973 0.554402
-0.886055 0.063501 0.564547
-0.859467 0.257939 0.544667
-0.86431 0.214703 0.559373
-0.867394 0.171845 0.572574
-0.868807 0.129531 0.584319
-0.868622 0.0878254 0.594722
-0.828008 0.331556 0.555649
-0.835784 0.287445 0.572684
-0.841696 0.243337 0.588087
-0.845811 0.199478 0.601887
-0.848202 0.156058 0.614125
-0.848946 0.113171 0.624887
-0.789822 0.406419 0.562513
-0.800613 0.362196 0.58212
-0.809507 0.31751 0.600042
-0.816533 0.272658 0.616265
-0.821733 0.227907 0.6307699999999999
-0.825167 0.183469 0.643604
-0.826909 0.139462 0.654841
-0.745021 0.480965 0.564589
-0.758755 0.437514 0.586847
-0.770631 0.393067 0.607501
-0.780638 0.347963 0.626463
-0.788788 0.302515 0.643618
-0.795103 0.257001 0.658958
-0.799629 0.211652 0.672514
-0.802429 0.166604 0.684353
-0.694539 0.55298 0.561459
-0.710658 0.511762 0.586072
-0.72533 0.468443 0.609547
-0.738194 0.423948 0.631479
-0.749256 0.378607 0.651599
-0.758498 0.332731 0.669833
-0.765926 0.286608 0.686147
-0.771561 0.240477 0.700572
-0.775452 0.194485 0.713166
-0.642966 0.616819 0.553738
-0.659594 0.580052 0.579955
-0.674918 0.541585 0.605052
-0.690003 0.498842 0.630202
-0.703617 0.454542 0.6536029999999999
-0.715571 0.409187 0.675075
-0.725806 0.363093 0.694543
-0.734285 0.31655 0.711994
-0.740998 0.2698 0.7274579999999999
-0.745972 0.222982 0.74099
-0.605683 0.642703 0.569422
-0.622988 0.606379 0.596592
-0.638961 0.56829 0.622821
-0.653686 0.527848 0.6484759999999999
-0.667489 0.484285 0.673527
-0.68001 0.439296 0.696491
-0.691021 0.39329 0.717349
-0.7004 0.346593 0.736103
-0.708077 0.299445 0.7528
-0.71405 0.251955 0.767498
-0.547591 0.701679 0.554111
-0.567035 0.667488 0.583415
-0.584847 0.631784 0.611552
-0.60142 0.594214 0.638792
-0.616428 0.554428 0.665688
-0.630329 0.512255 0.691597
-0.643145 0.468215 0.715765
-0.654668 0.42279 0.737938
-0.664707 0.376367 0.758047
-0.673117 0.329193 0.776139
-0.67985 0.281284 0.792298
-0.504962 0.725984 0.5654899999999999
-0.524473 0.692517 0.596332
-0.542944 0.656952 0.6262449999999999
-0.560306 0.619389 0.655005
-0.576426 0.579861 0.682628
-0.591289 0.53844 0.708937
-0.604878 0.495311 0.733669
-0.617107 0.450754 0.756615
-0.627829 0.405086 0.777675
-0.636815 0.358532 0.7969499999999999
-0.643835 0.310843 0.814788
-0.461548 0.74833 0.575288
-0.480734 0.715938 0.607515
-0.499227 0.681182 0.638863
-0.516956 0.644149 0.669063
-0.533795 0.605014 0.697868
-0.549598 0.563971 0.725115
-0.564245 0.521248 0.750626
-0.57763 0.477129 0.774228
-0.589607 0.431948 0.795818
-0.599894 0.386107 0.815448
-0.607786 0.337902 0.834676
-0.399786 0.797012 0.548765
-0.41781 0.768725 0.583392
-0.436375 0.737575 0.616708
-0.454637 0.703899 0.649239
-0.472407 0.667778 0.680665
-0.489536 0.629389 0.710723
-0.505878 0.58894 0.7391719999999999
-0.521292 0.546668 0.765814
-0.53566 0.502836 0.790475
-0.548895 0.457732 0.8129959999999999
-0.560924 0.411658 0.833256
-0.570489 0.363911 0.85268
-0.356203 0.814976 0.553295
-0.373881 0.787596 0.588787
-0.391654 0.757591 0.623615
-0.409524 0.725029 0.657305
-0.427132 0.689973 0.689867
-0.444304 0.65255 0.721097
-0.460886 0.61294 0.750761
-0.476741 0.571359 0.778639
-0.491751 0.528043 0.804543
-0.505822 0.483224 0.828321
-0.518922 0.437074 0.849857
-0.531099 0.389429 0.869176
-0.312668 0.831237 0.555841
-0.329847 0.804777 0.59246
-0.347009 0.775941 0.628216
-0.364278 0.744534 0.663035
-0.381544 0.710613 0.696678
-0.398566 0.674275 0.729013
-0.415177 0.635665 0.759835
-0.431231 0.594973 0.788928
-0.446608 0.552409 0.816097
-0.461208 0.508179 0.841183
-0.474952 0.462429 0.8640909999999999
-0.487762 0.415071 0.884869
-0.285902 0.820413 0.594051
-0.302524 0.792645 0.630746
-0.319226 0.762407 0.666482
-0.336015 0.729654 0.70114
-0.352731 0.69446 0.734519
-0.369197 0.656945 0.766434
-0.385259 0.617272 0.796684
-0.400793 0.575627 0.825074
-0.415691 0.532201 0.851441
-0.429857 0.48714 0.875677
-0.443144 0.440455 0.8978039999999999
-0.258341 0.807869 0.631096
-0.274547 0.778718 0.667739
-0.290855 0.747112 0.703326
-0.307159 0.713077 0.73769
-0.323341 0.676701 0.770639
-0.339251 0.638122 0.8019809999999999
-0.354763 0.597506 0.831527
-0.369773 0.555024 0.859113
-0.38417 0.510826 0.8846229999999999
-0.397799 0.464975 0.908037
-0.230386 0.793607 0.666778
-0.246302 0.763054 0.703324
-0.262152 0.730144 0.738635
-0.277958 0.694911 0.7725609999999999
-0.293583 0.65746 0.80493
-0.308916 0.617937 0.835561
-0.323872 0.576489 0.864293
-0.338332 0.53326 0.8910089999999999
-0.352138 0.488345 0.915659
-0.202554 0.777566 0.701211
-0.217943 0.745708 0.73748
-0.233336 0.711585 0.772346
-0.248588 0.675267 0.805677
-0.263601 0.636869 0.837317
-0.278357 0.596506 0.867117
-0.292728 0.554314 0.894959
-0.30655 0.5104 0.920781
-0.174683 0.759856 0.734381
-0.189696 0.726759 0.770168
-0.204536 0.691541 0.804408
-0.219102 0.654294 0.836954
-0.233544 0.615037 0.867741
-0.247699 0.573915 0.896631
-0.26139 0.53104 0.92355
-0.147189 0.740556 0.766
-0.161626 0.706224 0.801324
-0.175591 0.670218 0.834693
-0.189704 0.63212 0.866319
-0.203543 0.592037 0.8961979999999999
-0.21698 0.550202 0.924144
-0.11847 0.719857 0.7969269999999999
-0.132942 0.684395 0.830886
-0.146872 0.647698 0.863015
[...]
CELL_DATA 3055
SCALARS gaussian_curvature float 1
LOOKUP_TABLE default
1.215702809863559
1.3056931786135983
1.1110803236056173
1.2062648833365248
1.1521076734518796
1.0759642309352564
1.2324002349810639
1.0034087374799947
1.0698543727757628
0.9904395129890299
0.8930916092191017
0.9121893775308166
1.1623613215917534
1.1249899872678275
1.2017272361396438
1.149277625753781
1.13807517332725
1.1791486873739228
1.0988063945039248
1.1692692904383604
1.102158274611589
1.098109761133609
1.154484047624615
1.0839943072842602
1.18535130207375
1.087893686675279
1.1087589857595304
1.1140445072685452
1.089130694706314
1.1607790327043772
1.0766945793438296
1.057192903915312
1.0707876169355048
1.077232356735102
1.1141821828285554
0.9997682524101454
1.2065592577951816
1.1127049003928435
1.1231082409460598
1.1051592883797077
-1.4980286129872311
-1.1323819003207174
6.6855827197010305
0.9601358121505785
1.3359780081789332
0.9601592922102102
0.9703547755720512
9.143264884964553
18.608041666180927
0.9738783519454604
0.9733960920711732
1.329697564986063
0.7520259042326571
0.9561381488872738
0.9817296550636345
0.9574456007636789
0.9728416235781987
0.9540729279465507
0.9718366110643688
0.8263101928764465
0.8086548701919929
0.9479222685250519
0.8422928110057255
0.9715459502176396
0.8505204698837934
0.9344362695992978
0.9418943808972018
1.0631981071198593
1.0383274575051444
0.9726633310962131
1.0671266715512289
0.8667887549995098
1.0822775757883716
0.9489074137003392
0.9343040338960116
1.0711271333877588
1.0754262278344573
0.8055677616129228
1.0875022176975526
0.9206926849332534
0.9581577609239664
1.2640325780530492
1.2628083979803981
0.9356610390841705
1.1127908926541201
0.9688798143469046
0.9753642156869731
0.989485222637992
0.9118008560325908
0.9896608934953005
0.9407131808295623
0.9598295589166155
0.9298488251357484
0.9348441962717824
0.9384750802174728
0.9809432551364063
0.9535199605434692
0.9268988925172754
0.9356581634832746
0.9250516787703759
0.928815578600341
0.9275569273773858
0.9282687593837695
0.9377219383702047
0.9580216673785034
0.9247678460417912
0.9287349871087323
0.9244270859065598
0.9246303271435355
0.9289780762461219
0.929919943834817
0.9319769491418911
0.93412131552043
0.9293605946645964
0.9276457916989292
0.9298712147543167
0.9279531705516737
0.9357172209117566
0.9349939423580507
0.9293881618938837
0.9296146593716489
0.9376174647487001
0.9324970433589086
0.9386765630304391
0.9354741858432907
0.945486326972177
0.9440967032249536
0.9338081987966241
0.9310066961843437
0.9473246770932272
0.940682599608945
0.9485240071638589
0.9450843068667251
0.9548755143062059
0.9540962624668947
0.9405992176007594
0.9367019592728207
0.9575076069486566
0.950396344256393
0.9598897533049264
0.9562181909097964
0.9647785611361823
0.9633457985643633
0.9502056431310499
0.9448102237331966
0.9686962281580818
0.9613278367087108
0.970853055239236
0.9671562261849951
0.9749643268713282
0.9734288062056986
0.9604133298217075
0.9551129828974501
0.9782612966333155
0.9716763361264819
0.9804002094964739
0.9775120780438813
0.9831463439295163
0.9820062012486834
0.9708459050312594
0.9654112882027692
0.9870908346938642
0.9816434556199921
0.9895524774042148
0.9869932297829355
0.9908213915540921
0.9890158136529025
0.9804079100812725
0.9754461014099391
0.9950621808940369
0.9908533397740878
0.9975620895161076
0.9959124960174379
0.9986574805621833
0.9968783339325893
0.989369840936104
0.9842741854062321
1.0026267926669348
0.9992535185173166
1.0049264522519534
1.0032027716010048
1.0045492795589197
1.003079876076239
0.9975382474643275
0.9927137261264651
1.008252885735271
1.0047847654091262
1.0093827173853531
1.0076382777101567
1.0093046192654611
1.0079006726741282
1.0033241275780207
1.0000268627169102
1.0116576506841581
1.0085306874645286
1.012526438271402
1.011143914726969
1.0110425711587143
1.0098193713900994
1.0070463230485993
1.0046932754631221
1.0129788192583944
1.0108816422573672
1.0134114656665467
1.012696812209953
1.2766859706405236
1.2756185101280875
1.0089239633457536
1.007701871399426
1.2627712390614876
1.012559774416149
1.263135791514043
1.0136389803252983
0.7677712124381455
0.7821185904253339
1.0107401214685199
1.00891948035071
0.7825894640124297
1.012901232588227
0.7691697879498971
1.2489783677144393
1.0119569982216845
1.010875093011127
1.2481280257045901
0.6768314258228568
1.0118277391384518
1.0117338467817585
12.249948330643615
12.82111175904185
1.0116945676549531
25.590660578233127
-4.545087482850195
3.352273579337065
4.917216248367759
0.9632981356331971
8.85228257505787
0.9691019418333275
0.9607253190707414
10.427041122362418
20.562908289626268
0.9781944157297384
0.979633671241005
13.13962313308085
0.9676640960651274
0.936012189300109
0.9637583958976976
0.9404831118952653
0.9573446496248711
0.9736787754896123
0.7648680625250228
5.076921750318634
0.9478633327712664
0.8010593539004475
0.941493858308825
0.8179651634404383
0.9383999609996228
0.9439755776857975
1.0020322366735623
0.9703118678932938
0.9536059729863844
1.009580533930666
0.8540997860095936
1.0336030418222617
0.9525133993257907
0.9309379128765876
1.0520181756984877
1.061375687981375
0.7871906245914299
1.0858281047912146
0.9366817453495375
1.055815969736654
0.8956282319403909
0.9614448196979608
1.2410380434510677
1.2312506222499366
1.2080335521252517
1.2145716274541938
1.3283121422884823
1.2157159932303077
0.9962427832797132
0.83332858385296
1.1063338808164496
1.1027881617587632
1.2489337808165542
1.1129900833933473
1.143538510413622
1.12019096204859
1.1333795393549324
1.000967131981322
1.1412233187161098
1.1357114819153262
1.1629187161261132
1.1386076489562147
1.1401359187130375
1.1391723999081713
1.2389916251109274
1.1040571779368145
1.1366933737084626
1.1465099221236004
1.152349395512998
1.129929814662927
1.1498722797206529
1.1284162176754484
1.130367088936963
1.194226521121817
1.1182562108123952
1.1255845208098871
1.1477722042943435
1.1014023296869075
1.1580928687597845
1.138210637610059
1.0608310135332575
1.0761712976712665
1.1387144269205156
1.1672249496725664
1.1513295830303512
1.194308594808031
1.1093771541447963
1.1297128129602672
1.1558243178050562
1.1495069531583135
0.9833300202989506
1.181686738914581
1.1004412467184526
1.1265575264696976
1.1497423980493309
0.9053328641603331
1.1345487363192222
0.9778847051398833
1.163193798400974
1.0877752594177637
1.1113436133403602
1.135532189247103
0.9049260731856008
0.9494854586255524
1.1175242657036777
0.9744323204331155
1.142280737507081
1.0746073312197288
1.0942177230204855
1.1166821327389198
0.9079990160398537
0.9483833230702193
1.1001130762727238
0.9737283150514524
1.1219971807853188
1.0632858258513995
1.0795140918300512
1.098375210381216
0.9152948444246058
0.9497405561996206
1.0856854467731143
0.9770533185300028
1.1060497361653139
1.0561289628561217
1.067335340127269
1.0830480896968009
0.9275714948383111
0.9553705315328613
1.0757397858978461
0.9873149157880377
1.092797963614714
1.0542938668140975
1.059256534129919
1.0712163777515413
0.9460784401121254
0.9654106634885179
1.0668993715371435
1.0023201101455514
1.0821960570962283
1.0561208925052528
1.0563623954767882
1.0657777357864315
0.9688947960908545
0.9796320770834882
1.0682609984417044
1.0220129458874112
1.0811513960920562
1.0609785081287384
1.057937049368682
1.0613351319628506
1.0007304270688828
1.0014130596320274
1.0726030414530259
1.044446832736409
1.079946951419508
1.0719636306662086
1.067371368452826
1.0655957740188335
1.0341819871686853
1.0294311437424866
1.077815983195675
1.0762683343077475
1.083605790708566
1.090041462573938
1.0765204790279632
1.073419774251596
1.0752647030351579
1.0606951538258953
1.0899290396789314
1.1116705346929106
1.0924337388240322
1.1077395619726393
1.0879741567850452
1.080355403646968
1.1181860786755273
1.0955533752839652
1.103847651056462
1.1429213363402777
1.1014226191960605
1.1251904813312688
1.1115049522701257
1.0981361571438095
1.1638684041258975
1.1352021737408762
1.1225445599712596
1.1746151770899087
1.1141053873126219
1.1424081422960628
1.128596975823531
1.1151323362619956
1.199887735353109
1.1714101073800889
1.1293537756694416
1.2111693430753352
1.1080540646071033
1.161566877029556
1.1364428400181832
1.1272468675136347
1.2442726599189502
1.200784017402878
1.1218473881643127
1.2183457980405743
1.099142158646831
1.1421277561006402
1.1358034448063352
1.1290991855978671
1.2538902315163103
1.230214627348907
1.1104591453009582
1.1834614038752984
1.0909161461862122
1.1209328073067435
1.121022195132749
1.1236612651206443
1.217795466977031
1.2120062526781084
1.1035555716872523
1.1495095733533298
1.0898086840486187
1.1057460245941646
1.1093970409854217
1.1073206653161722
1.174819683617658
1.1805769806728041
1.0962219745630666
1.1169747993046657
1.0826598980788127
1.0874753822748657
1.0981983616952737
1.0976265404789953
1.1288247828307563
1.1429061183845837
1.0833870067119762
1.0813608174778437
1.073761443604738
1.0669197701745523
1.0876110880455545
1.0888603665445982
1.0890793870444462
1.107043935367559
1.075133679561986
1.0719055716263561
1.0672990427923539
1.07091260828691
1.073962349451779
1.0768141948281096
1.0609539761448095
1.0636867442596085
1.0652766654217456
1.0744520777965803
1.055494024212338
1.0610558710926163
1.0695179322413266
1.070368979501728
1.0565804906287544
1.0420894256375375
1.060591018333394
1.071766981007197
1.053651061988322
1.0592651777818465
1.0632988195906172
1.0624430922891424
1.043857715013968
1.0152750179315615
1.0607650362988712
1.0756089070355308
1.0523538320087653
1.0615835869519004
1.0691227919876338
1.064716618934308
1.0374369730057662
0.993183977758853
1.0636340531623374
1.0818823883633235
1.056201186149244
1.065219766407095
1.070671675034275
1.0677492095694656
1.037019705561932
0.9785489701207443
1.068815345613882
1.0884470291594608
1.0611152656326266
1.0717283689203543
1.081103510590486
1.0755269729977859
1.0378555849423565
0.9697656393885992
1.0750477085656094
1.09925552487353
1.0871031282700478
1.0854588503136693
1.0409797052538814
0.9628611050836012
1.0977130326556286
0.9659149474400346
0.894580538372865
0.9632668305962321
0.9201873092449917
0.8959313409597558
1.0365915986547778
0.9771561480683236
0.950267563740204
0.9553190080920051
0.9715099451151259
0.9660478313623573
0.9535093164771564
0.9178766017649669
0.9352960984145975
0.9559408707979253
0.9360890811953289
0.9405429165555359
0.9321844962011685
0.9410990891726096
0.9697120608363843
0.9528901731783477
0.9315724233664018
0.942522371180117
0.9317109482093441
0.9382070606628521
0.9274149231761012
0.9288199787915993
0.9493832208159627
0.9611749562298406
0.9300736842968907
0.9425918926246277
0.9329050195818993
0.9389271154561285
0.9276996804599893
0.9251794441821422
0.9515597676557379
0.954035785329808
0.9342189471195899
0.9466940492532441
0.9393759375777905
0.9458289438372155
0.9328492785501581
0.9291613471755661
0.9557407288913786
0.9569416701253731
0.9422636067767917
0.9543630290578382
0.9483682915761955
0.954014707597817
0.9411167855701508
0.9368594478017176
0.9629816741774304
0.9634942685949421
0.9518735455004417
0.9625488913129192
0.9581261537258242
0.9631550835166802
0.9508420988097681
0.9461900236788812
0.9703723583359796
0.9704568197404695
0.9621225122041578
0.9716256593202677
0.9684181129357854
0.9728923302610393
0.9617396735974983
0.9567118684284912
0.978940287204623
0.9782931784240959
0.9724988729086164
0.9804745924867131
0.9784655947995091
0.9819670970523521
0.9719427170946473
0.9674791185151568
0.9861091822597234
0.9858415479184051
0.9819394987402505
0.987839679385027
0.9872145907324359
0.9896132691243698
0.9814577057655016
0.9774276460107914
0.991970760644143
0.9917327680844785
0.991004526767743
0.9946403106189197
0.9954937504171788
0.9967308558764219
0.9906497209905515
0.9863779919804956
0.9975007265449303
0.9966047663094962
0.9986764523827811
1.0007531211146254
1.001580107278813
1.0024196705514141
0.9988407709321103
0.9953032631893166
1.0025086646431476
1.0013468153309548
1.0042432733709572
1.00503805538563
1.006164071463454
1.0061192902055258
1.0044894572289658
1.0019906096861506
1.005968210094957
1.0051053687892635
1.0082794789251965
1.0070930356006167
1.0094096269502961
1.0082679648836446
1.008891601417924
1.0070223778141902
1.0070490012199405
1.0070054105341766
1.0114456039383888
1.0087015833369903
1.012089345112956
1.010486986578209
1.011626814604562
1.0102029601091969
1.0083398791069556
1.0078622262729338
1.013089329235862
1.0107522713650587
1.0134059394505281
1.012671240114472
1.0134030076106981
1.0125842341539653
1.00951164527236
1.0088846562554752
1.0144349156736945
1.0127208566476529
1.0158789689362318
1.0148996092462466
1.0143692055959077
1.0136539077475772
1.0112812088998766
1.0099909662739968
14.59612510200421
1.0150236064429845
14.8293984561357
1.2492763202644586
28.172649023924706
14.592337180778943
1.0132503812686222
1.011686736324108
1.247617264534506
0.6689120066448314
1.0133790014541117
1.013264832009702
12.523097317632015
13.100832625579006
1.0124090515114268
26.146142026361375
1.2185347850925796
1.200350077545167
1.2219870307860177
1.227739091725685
1.2083446586916078
1.1934341202857013
1.2216445601847234
1.1843400656541034
1.190913552312275
1.1689379456346545
1.2111747752811903
1.22072155251559
1.140976793763686
1.2782958165325171
1.2339195281088906
1.3646650642195504
1.1455839698778632
1.1644510671172337
1.3191862927599989
1.2213342436362233
1.2661999852193349
1.243025877810373
1.1897478159360717
1.0358281724164502
1.1515411353970153
1.1238678544007485
0.9955837960602223
1.158113458696881
0.9953225236871125
0.8905572862589048
0.9226656125880813
0.9718200186794952
1.0996637322801552
1.1794301747067948
0.9472869198498205
0.8451157242572149
0.965122378391665
0.9931908320497984
0.9914817629152273
0.9703958104819468
0.911961878190688
0.9738463209801469
0.9643985979433508
0.9997574181639631
0.9642181908521108
0.9415555628530712
0.9427223664800816
0.9411456909143223
0.9737073937612317
0.9478104656233712
0.939702968044
0.939750981566428
0.9400889608171197
0.9365060463540649
0.9375405118859833
0.9355342729886875
0.9411308050866156
0.9532534136586985
0.9361033317698263
0.9388903815210128
0.9373963788608737
0.9356992357133191
0.9371035305250679
0.9374126262748091
0.9395076126466988
0.9406935899413045
0.9380565342738616
0.9374888569649916
0.9403526747382629
0.940980960573142
0.9428205023105247
0.9431396923956625
0.9421615630020217
0.9410236525746518
0.9446606121426335
0.9434495764048434
0.9473877845398349
0.9492571811865826
0.9514575654883715
0.9530077720499814
0.9496699744060783
0.946911580440527
0.9529303422725334
0.9504925050511048
0.9575513270634494
0.9595484380870767
0.9632094504463065
0.9636563549083237
0.9588952875656923
0.9550837158568579
0.9627830294643889
0.9599155245132445
0.9691362454212468
0.9704512646638026
0.9745474898501707
0.9754156046307092
0.9696725232131578
0.9650896887404605
0.9727048456114784
0.9691445272333119
0.9792969351035572
0.980981317662311
0.9839429088174881
0.9847591765957034
0.9790523272205209
0.9748391597590456
0.982183651836603
0.978871519752677
0.987155031041417
0.98848255492616
0.9908988219716316
0.9914100780781593
0.9870430198362415
0.9835862897292764
0.9896202683532753
0.9870992241971109
0.992667570556721
0.9945523645925773
0.9958162266626276
0.9971897645919563
0.9918447257434535
0.9899639659531887
0.9958902816374404
0.9938857085501378
0.9969136262460992
1.0000500426008125
1.0005792953265757
1.0023421737519602
0.9963516829673661
0.9944314385706271
1.0011613092374052
0.999638948273412
1.001499094685715
1.0046393884766909
1.0049028744997033
1.0062802898652945
1.0000917983899007
0.9986100557520283
1.005574085153937
1.004388137065799
1.004960657866531
1.0084640925404755
1.0077156553237485
1.009841674632102
1.003526702627646
1.002061622965004
1.0093585748439438
1.0081094688460088
1.0074283171132112
1.0112391737521937
1.0105296900065035
1.0122145273371328
1.0058466182049068
1.0047000011765592
1.0122314472149005
1.0117284303982768
1.0100831038799951
1.0138103219491474
1.0123925534786147
1.014434934217138
1.0077732995565603
1.0066381867747645
1.0131955961788095
1.0125920750295017
1.011297721649707
1.0140153258202873
1.0135507119600695
1.0142259353921266
1.0099833173823707
1.0087683448878435
1.2437377730035868
1.2435426556300992
1.0132969011888142
16.456067199208615
1.2265057899449259
16.66860086453267
1.0113109054600906
1.0102503119640094
16.012025109284988
0.7999062926517992
1.2247250589164553
0.6343735321447342
1.0113051912375541
1.0110999265373009
12.447303812717237
13.037187897759082
1.010837749507679
26.210539803321783
-6.498533599430313
-3.4644317107152895
2.956407807972364
-1.9361985324902435
1.2376801585109496
1.257185990448163
1.396962792734333
-10.440946709518531
7.46955950815235
13.78311291445966
0.9627213089869048
0.7737611399406517
1.092526301519433
1.276849290654494
1.0932668298776003
1.1378130167264913
1.138316121430072
-7.201772366669487
1.1318636847362726
0.977018337292067
1.136040282429017
1.1810439834036877
1.1736951731294947
1.1741526872552746
1.1044425388156134
1.1074589061748357
1.3011478598046038
1.112931287209186
1.170725822363943
1.2012331726201406
1.1938840214592206
1.2239338575896384
1.1404987159505764
1.1118703231027243
1.1676005054463288
1.2606238964823788
1.172623159656201
1.2277638658896706
1.1818918838335706
1.2069827539366225
1.1022979884040995
1.0933317437937524
1.2221082314345608
1.1846455559607167
8.271440013261895
-3.2773502970727995
-3.7172040139524225
12.51929355658941
0.979424298649265
0.9726795816304099
0.9816006340249589
12.920353124075444
0.8809293907481582
0.9824350844793359
1.3237938934578524
0.9667621803673355
0.9778195243756491
0.9638888172835363
0.9660251088973009
0.9725206715906206
1.3794976403397283
0.9769413814560928
0.9837332769354734
0.9601240729608918
0.952288399690363
0.9510716326033303
0.9410996677190371
0.9916706745058981
1.001193910051828
0.9539734426863797
0.9668320089737612
0.9649218548409854
0.9337316301835117
0.9572121186833491
0.9359938589101684
0.959713452987267
0.9774098322946182
0.936787530750903
0.9458406112824451
0.9729677591058054
0.9317558664449956
0.9694037208515169
0.9494100879638877
0.8620458859998136
0.8410818437236388
0.9247646068257367
0.932058499858301
0.8727912353947577
0.945624727256233
0.8823572801664323
0.9751844049155368
1.0536912897896469
1.0393819021404143
0.9279642605594081
0.9247583616478039
1.0448026369135066
0.9747316142572374
1.0607172430858274
0.8978190956804537
1.0524599442877478
1.0709146419355624
0.9485741790023688
0.9313665029638434
1.060426026898069
0.8607488858772443
1.0467712933934594
1.0099922997780086
1.1962199673151848
1.2041684908771844
0.9449261602714141
0.955838934819755
1.129716114581083
1.106663672882548
1.116554296664596
1.0885903093686065
1.1205101262362838
1.115598580638829
1.105670377854303
1.0779953911853082
1.1853448812169778
1.1200822421663885
1.1249858802756834
1.0646347868225488
1.2280950330202611
1.1523763592292742
1.078557622324369
1.0634790426135112
1.0304756644396411
0.9818177861351078
0.9286799523630949
0.9403731675116963
0.9938408845608352
1.1311012522001611
1.052214428775648
1.0935068096210694
0.9522986404835553
0.9700110739168754
0.9747725302416359
0.9807917485263544
0.941480159000326
0.8812266910010598
0.9435004241832035
0.9842591604185645
0.9543003963189604
0.9671997205190745
0.9496716388389637
0.9565517447543592
0.9465276902832211
0.9561813427226673
0.9817848660397865
0.9688662443133946
0.9452167388469437
0.9606543481954486
0.9480598358803579
0.9566173393134672
0.937307590928562
0.9339897848848426
0.969296466127781
0.9797790082074036
0.9453657676081448
0.9630882046601561
0.9511938793681594
0.9603588129870612
0.9392007220443148
0.9339856423981462
0.9745874226778962
0.9767586752635395
0.9513097984237375
0.9698360552004296
0.9589421309680017
0.9683034541257918
0.9455669643986668
0.9392859997792586
0.9820269375905375
0.9840489133949092
0.960287984920448
0.9785443191828245
0.968563951790256
0.9774589628948425
0.9545020938601401
0.9474134058826232
0.9900186956947714
0.9919687130278465
0.9701196229479327
0.9870991771123265
0.9785535909742497
0.9866381340340571
0.9651496282360863