# vtk DataFile Version 1.0
Tissue data
ASCII

DATASET POLYDATA
POINTS 1594 float
0.150263 -0.734312 0.6489969999999999
0.118331 0.539546 0.950162
0.23662 -0.774897 0.464785
0.220786 -0.769205 0.504265
0.204401 -0.762251 0.54211
0.18765 -0.754227 0.578122
0.169596 -0.744993 0.613569
0.18491 -0.722548 0.655979
0.218643 -0.709898 0.661114
0.251916 -0.696213 0.664569
0.285882 -0.680986 0.6663789999999999
0.32038 -0.6642 0.666367
0.355225 -0.645861 0.6643749999999999
0.390212 -0.625993 0.6602709999999999
0.425119 -0.604632 0.653953
0.459712 -0.581839 0.645329
0.49373 -0.557696 0.634344
0.526906 -0.532316 0.620986
0.558974 -0.505824 0.605278
0.589676 -0.47838 0.587272
0.617053 -0.45184 0.568342
0.642278 -0.42531 0.548061
0.665804 -0.398453 0.526146
0.687898 -0.370811 0.50247
-0.251916 0.75271 0.48669999999999997
-0.228941 0.748672 0.527223
-0.203014 0.742622 0.569078
-0.176022 0.734844 0.609281
-0.148113 0.725529 0.647596
-0.118947 0.714906 0.683625
-0.0897681 0.70285 0.718095
-0.0609102 0.688948 0.751336
-0.0326055 0.673194 0.783475
-0.00537099 0.655536 0.814491
0.0209094 0.636132 0.844154
0.0459664 0.615113 0.872354
0.0695025 0.592588 0.899133
0.094057 0.567575 0.924734
0.151827 -0.715299 0.688568
0.153423 -0.695125 0.726742
0.15502 -0.673498 0.764203
0.156638 -0.649519 0.80232
0.158249 -0.623034 0.840939
0.159813 -0.593884 0.879869
0.161286 -0.561917 0.918868
0.162614 -0.526986 0.957635
0.163744 -0.488958 0.995808
0.164616 -0.447722 1.03295
0.16517 -0.403205 1.06856
0.16535 -0.355384 1.10203
0.165104 -0.304323 1.13269
0.164421 -0.253233 1.15842
0.163187 -0.200631 1.17992
0.161321 -0.145912 1.19702
0.158859 -0.0885576 1.20929
0.156141 -0.027231 1.21606
0.153889 0.0338889 1.21606
0.151912 0.0939707 1.20951
0.148011 0.153048 1.19728
0.143903 0.209336 1.17997
0.141366 0.26278 1.15795
0.138525 0.312369 1.1328
0.135392 0.358075 1.10538
0.132072 0.400072 1.07639
0.128647 0.438581 1.04638
0.125173 0.473839 1.01582
0.121659 0.507293 0.98387
0.157176 0.525011 0.952298
0.194912 0.509662 0.9521499999999999
0.232016 0.49368 0.94956
0.269729 0.476653 0.944291
0.307873 0.458681 0.93619
0.346248 0.439831 0.92515
0.384624 0.420156 0.911104
0.422743 0.399707 0.894027
0.460323 0.378547 0.873929
0.497064 0.356754 0.850864
0.532664 0.334424 0.824927
0.566824 0.311668 0.7962629999999999
0.599262 0.288615 0.7650589999999999
0.627965 0.266757 0.733614
0.654189 0.245318 0.701047
0.678398 0.223969 0.6669619999999999
0.700924 0.202381 0.63085
0.722359 0.179778 0.591302
0.741158 0.157645 0.550902
0.757307 0.136124 0.509952
0.116169 -0.733806 0.664916
0.0816664 -0.732239 0.679189
0.046409 -0.729068 0.693118
0.00996659 -0.723768 0.70723
-0.02746 -0.716079 0.7215509999999999
-0.0656176 -0.705724 0.736086
-0.104289 -0.692494 0.75071
-0.143451 -0.676357 0.764744
-0.18359 -0.658325 0.776366
-0.224312 -0.638422 0.785245
-0.265208 -0.616713 0.7913479999999999
-0.305969 -0.593346 0.794556
-0.346317 -0.568507 0.794772
-0.38366 -0.543946 0.792202
-0.419405 -0.518937 0.7870739999999999
-0.454099 -0.493165 0.7794139999999999
-0.488221 -0.466258 0.769092
-0.522861 -0.437225 0.755509
-0.555641 -0.407952 0.739459
-0.586402 -0.378653 0.7211839999999999
-0.615024 -0.349528 0.700948
-0.641429 -0.320765 0.679033
-0.665581 -0.292531 0.655727
-0.687486 -0.264967 0.631311
-0.707178 -0.23819 0.606055
-0.724725 -0.212301 0.5801999999999999
-0.740199 -0.187375 0.5539999999999999
-0.753722 -0.163481 0.527593
-0.765836 -0.139757 0.50024
0.00272616 -0.812536 0.465843
0.0303234 -0.803553 0.49789
0.0565302 -0.792962 0.529106
0.0818779 -0.78062 0.559625
0.105108 -0.76712 0.589391
0.12794 -0.75174 0.618897
0.326972 0.728954 0.466313
0.31354 0.720675 0.515296
0.298948 0.710515 0.563143
0.283291 0.698612 0.609584
0.266733 0.685155 0.654406
0.249438 0.67034 0.697461
0.231574 0.654357 0.738659
0.213333 0.63738 0.777955
0.194778 0.619588 0.81534
0.176353 0.60108 0.850765
0.158078 0.581927 0.8843759999999999
0.138261 0.561642 0.917331
0.0833657 0.533788 0.967072
0.0506434 0.52573 0.982426
0.0178115 0.515589 0.9969399999999999
-0.0161962 0.502633 1.01085
-0.0512313 0.486635 1.0237
-0.087098 0.467614 1.03501
-0.125723 0.444167 1.04388
-0.168119 0.418438 1.04953
-0.21071 0.391359 1.05098
-0.253329 0.363358 1.0482799999999999
-0.295708 0.334727 1.04145
-0.337587 0.305723 1.03059
-0.378684 0.276562 1.01584
-0.416362 0.249099 0.998634
-0.452081 0.222348 0.978827
-0.486405 0.195884 0.9563389999999999
-0.519812 0.169289 0.9308879999999999
-0.553342 0.141618 0.901397
-0.584647 0.114657 0.869786
-0.613604 0.0885279 0.836423
-0.640135 0.0633308 0.801671
-0.66421 0.039149 0.765883
-0.685841 0.0160465 0.72939
-0.705075 -0.00593093 0.692499
-0.72199 -0.0267556 0.655487
-0.736688 -0.046416 0.618605
-0.749287 -0.0649164 0.582073
-0.7599 -0.0823083 0.546112
-0.769008 -0.0992807 0.509374
-0.774194 -0.0648331 0.502839
-0.771876 0.0967448 0.499478
-0.772016 0.0597629 0.511609
-0.770863 0.0233431 0.522118
-0.768464 -0.0123499 0.531157
-0.764871 -0.0473303 0.538945
-0.752197 0.198595 0.503249
-0.756136 0.159697 0.519764
-0.758532 0.120817 0.5343
-0.759345 0.0823837 0.547165
-0.758765 0.044572 0.558141
-0.756872 0.00749824 0.567461
-0.753729 -0.0288454 0.575326
-0.719946 0.304733 0.494917
-0.728238 0.265636 0.516432
-0.734839 0.22581 0.535941
-0.739637 0.185786 0.553623
-0.742812 0.145805 0.569126
-0.744387 0.106171 0.582625
-0.744466 0.0670458 0.594193
-0.743171 0.0286037 0.603911
-0.740574 -0.00912074 0.611969
-0.687195 0.372415 0.499813
-0.698179 0.333907 0.5243059999999999
-0.707382 0.294236 0.547254
-0.714869 0.253763 0.568135
-0.720584 0.212892 0.586898
-0.72459 0.171895 0.6034809999999999
-0.726977 0.13109 0.6178629999999999
-0.727821 0.0907099 0.630124
-0.727218 0.0509315 0.640375
-0.725259 0.0118317 0.648764
-0.64861 0.43854 0.499498
-0.661911 0.402078 0.52657
-0.673734 0.36352 0.552582
-0.683868 0.323524 0.576909
-0.692244 0.282514 0.5992419999999999
-0.698873 0.240889 0.619346
-0.703785 0.198981 0.6371249999999999
-0.707037 0.1571 0.65256
-0.70871 0.11552 0.665694
-0.708886 0.0744475 0.676631
-0.707652 0.0339893 0.685509
-0.606115 0.500089 0.49350299999999997
-0.620193 0.467451 0.523636
-0.634 0.431772 0.55187
-0.646675 0.393426 0.579183
-0.657691 0.353277 0.605067
-0.666974 0.311884 0.628961
-0.674516 0.269656 0.650567
-0.680346 0.226954 0.6697299999999999
-0.684508 0.18411 0.686396
-0.687062 0.141415 0.700591
-0.688083 0.0991056 0.7124
-0.687652 0.0573196 0.721949
-0.576142 0.526934 0.513573
-0.590576 0.494975 0.545024
-0.603755 0.461147 0.575183
-0.617107 0.423419 0.603733
-0.628986 0.383305 0.631249
-0.639132 0.341692 0.656873
-0.647563 0.299027 0.680162
-0.654302 0.255684 0.700901
-0.659382 0.212006 0.719002
-0.662849 0.168307 0.734464
-0.664761 0.124843 0.747355
-0.66519 0.0817771 0.757785
-0.528391 0.583842 0.493513
-0.544737 0.553168 0.530513
-0.559625 0.521668 0.563529
-0.573317 0.488188 0.595257
-0.585723 0.452823 0.625565
-0.598039 0.413368 0.654869
-0.608936 0.371718 0.682468
-0.618166 0.328806 0.707663
-0.625756 0.285001 0.730198
-0.631726 0.240655 0.749957
-0.6361 0.19609 0.766916
-0.638918 0.15158 0.781126
-0.640238 0.107302 0.792679
-0.494475 0.608937 0.506544
-0.51162 0.578655 0.544943
-0.52695 0.547763 0.579571
-0.541116 0.514749 0.612907
-0.554046 0.479733 0.644827
-0.565675 0.442818 0.675186
-0.576854 0.401605 0.705133
-0.58665 0.35871 0.73254
-0.594943 0.314684 0.757123
-0.601706 0.26988 0.778785
-0.606928 0.224632 0.797498
-0.610618 0.179219 0.8132969999999999
-0.612816 0.133823 0.826256
-0.441115 0.659284 0.476805
-0.459122 0.633067 0.517177
-0.476648 0.603856 0.556351
-0.49271 0.573128 0.593027
-0.507286 0.540708 0.627993
-0.520687 0.506162 0.661557
-0.53284 0.469598 0.693576
-0.543718 0.430501 0.724549
-0.553593 0.388195 0.754344
-0.562294 0.344347 0.781178
-0.569651 0.299406 0.80497
-0.575579 0.253742 0.825694
-0.580031 0.20764 0.843383
-0.583019 0.161257 0.858092
-0.404702 0.680691 0.48420199999999997
-0.422471 0.65595 0.525239
-0.439788 0.628354 0.5653009999999999
-0.456475 0.598147 0.603791
-0.471985 0.565943 0.640402
-0.485797 0.531991 0.675625
-0.498419 0.495904 0.709333
-0.509492 0.457413 0.7421949999999999
-0.519434 0.416358 0.7734759999999999
-0.528342 0.37329 0.802231
-0.536076 0.328724 0.828102
-0.5425 0.283087 0.850953
-0.5475 0.236673 0.870795
-0.551046 0.189542 0.8876809999999999
-0.367702 0.700565 0.489336
-0.384929 0.67745 0.530896
-0.401628 0.651528 0.571976
-0.417714 0.622854 0.612155
-0.433016 0.59158 0.651096
-0.447335 0.557879 0.688619
-0.460531 0.52186 0.724595
-0.47254 0.483598 0.758862
-0.483343 0.443204 0.79116
-0.49294 0.400904 0.821139
-0.501285 0.35702 0.848492
-0.508276 0.311909 0.873046
-0.513719 0.265842 0.89486
-0.517393 0.218603 0.914269
-0.330472 0.718826 0.491919
-0.346782 0.697427 0.534088
-0.362625 0.673139 0.576327
-0.378028 0.645936 0.618096
-0.392901 0.615877 0.658972
-0.407118 0.583076 0.698596
-0.420563 0.547674 0.736648
-0.433126 0.509849 0.772816
-0.444708 0.469817 0.806794
-0.455218 0.427845 0.838298
-0.464583 0.384254 0.867057
-0.472696 0.339426 0.892879
-0.47932 0.293815 0.915758
-0.483653 0.245791 0.937389
-0.291705 0.736445 0.490683
-0.308257 0.715875 0.534579
-0.323122 0.693077 0.57823
-0.337793 0.667306 0.621464
-0.352151 0.638583 0.663941
-0.366078 0.60698 0.705311
-0.37947 0.572607 0.745214
-0.392211 0.535628 0.7833019999999999
-0.404193 0.49625 0.819234
-0.415322 0.454726 0.852683
-0.425511 0.411346 0.883351
-0.434707 0.366442 0.910964
-0.442866 0.320372 0.935299
-0.448728 0.272522 0.957871
-0.269223 0.73296 0.532073
-0.283356 0.71131 0.577584
-0.297307 0.686907 0.622203
-0.311074 0.659593 0.666042
-0.32457 0.629361 0.708881
-0.337715 0.596271 0.750399
-0.3504 0.560443 0.790254
-0.362516 0.522048 0.828094
-0.373963 0.481301 0.863575
-0.384659 0.438448 0.8963679999999999
-0.394538 0.393751 0.926185
-0.403585 0.34743 0.952779
-0.411849 0.299387 0.976067
-0.243366 0.727853 0.574406
-0.256799 0.704708 0.620328
-0.269949 0.678827 0.665338
-0.282907 0.650076 0.709412
-0.295662 0.618436 0.752317
[...]
CELL_DATA 3056
SCALARS gaussian_curvature float 1
LOOKUP_TABLE default
1.1660318955264661
1.1553114225956806
1.1602066307563792
1.1611618498764467
1.1719651212791922
1.1351908593443825
1.1768752008302332
1.1448497050128585
1.1972545194294946
1.1095661233631389
1.1549987444030416
1.1351992731918847
1.0863532071912814
1.0894289421468515
1.0652608068549265
1.104069316293777
1.0792164550287908
1.0861292927285409
1.2568042641922001
1.1673446809722323
1.1118545341756054
1.3924275300418283
1.0797801968847693
1.2430479111598212
1.0950940570968188
1.1500455252143122
1.5589634258679004
1.5478721304412975
1.4195272256539322
1.136478226264721
1.4551281371049232
1.174024900174428
1.0186427036092778
1.0791675811757777
1.2432988050173592
1.1706742997163664
1.1042900033811587
1.0501725364214105
1.6634800129620921
1.7090243430811223
-0.7493162018117697
17.576389611516692
-1.4293308723610365
1.1879095508560547
19.515895562773846
1.185104849290194
1.1873850478795238
0.8918670282101768
1.1887922445248167
1.5727643924282058
0.7112955212313743
1.1823188373841065
1.1512791800512372
1.1776741538277302
1.1443542979055312
1.186888116644009
1.1905568222188587
1.2648516727543813
-17.503642500959803
1.1777757515337988
1.196860710028236
1.1796362945609171
1.184103976114751
1.0859197674153536
1.1469858479957926
1.1665181330986356
1.1662426401785788
1.130713073049995
1.1616516042836302
1.1456460154461463
1.1157726132264154
1.100121632152018
1.1671199214127048
1.1369158664594492
1.1609273609265944
1.1467288948108223
1.176454131781544
1.1207160479707106
1.1145057371338283
1.1621118891599314
1.136305417029354
1.1558657936778283
1.144257787663023
1.1733672965400817
1.1815169786755841
1.12074625357272
1.1149699128654498
1.1556750839389343
1.1343672374232305
1.149849638247429
1.1401497977465305
1.1664843387382469
1.1779304558572912
1.1207485383172617
1.1150799251004202
1.148371080293023
1.132578150875888
1.1439280540337828
1.1378349651175468
1.1559486393069023
1.1682364520606208
1.1213757086210383
1.1153286563857119
1.1425112203034165
1.1325825497187614
1.1405377331780255
1.1367021515096065
1.146407663955225
1.155402056699471
1.1223682464436662
1.116418219587602
1.140286750252825
1.1331688912450995
1.1409411463972607
1.137658869057954
1.1417823871612234
1.1459298137382323
1.125557840498121
1.1188767974875333
1.1421637483920468
1.1363285133635108
1.1427395458016372
1.140186588112408
1.1448886398641065
1.1451616747777187
1.1289578015573274
1.1226771065047925
1.14223581623898
1.1395732097343494
1.1441593455171106
1.1440496967017093
1.1438201146449698
1.1470487356796868
1.1343500877198154
1.1275927542916904
1.145815860423819
1.1449925076712475
1.1494494652391158
1.1487357613019455
1.137352611529526
1.1372803950288073
1.1390546313132606
1.1328886983291884
1.1495986660614732
1.1495960252484687
1.1570661301067235
1.1577771932308896
1.4277722849604597
1.4191598352438097
1.1441215850938526
1.1373234447893426
1.4345230072385347
1.160717948287367
1.441616218223064
1.1671000961477305
0.8778233398021996
0.8785400815693755
1.1506386798796724
1.1422234846685786
12.340779560511962
1.1631269539408822
12.062487509790142
1.159351025294395
1.154212982927866
1.1481068567270194
11.5534804994648
1.155961481263145
0.8861887880438626
1.391806254337953
1.1559708218125604
1.1504463948307944
1.389636748616879
0.8510587822386908
1.1475976619284411
1.1497765081989306
0.8497675297290863
1.3804830834298303
1.139735249250997
1.370101504585694
0.8265855201262462
-17.477169372424797
-25.312385097724952
-9.657112862395117
1.1789206228939746
-6.65116523011515
1.1744784315904107
1.1796083038814427
8.99904389539305
14.259702915102165
1.1716565897485933
1.1717233522179913
7.567208976492192
1.1659022829197552
1.1629823834560502
1.159400271968258
1.151350500213521
1.1607617216833286
1.162073837208603
1.2595923602391266
15.494592487271861
1.1537786294967343
1.1721380111294717
1.1699936569573186
1.196402810344793
1.150169807179377
1.1506508884144742
1.1071479492875542
1.1829704151546796
1.166615895858945
1.2007880092568168
1.1197649713654354
1.1275279313758326
1.1363247938288246
1.136093732609841
1.159012849311115
1.0896375885571734
1.085563686658832
1.0789707858710273
1.112909300512812
1.0985534397146097
1.1254454924959354
1.1293556751724183
1.1182091864071653
1.1249911719662689
1.1613553279024988
1.1404865117468608
1.1919458016800533
1.1854328463226174
1.108066608157726
1.0995023866051423
1.100394619122818
1.0976999476267049
1.250624387585601
1.157078184291591
1.289544647516753
1.202511399580179
1.213158683883685
1.1011913782333644
1.128445438755689
1.1167082081626725
1.3390903205676294
1.1912664516839266
1.3219548119219975
1.2611641909748688
1.4200118456203583
1.3330004688675658
1.1459401036875694
1.12855230604792
1.3854991737942899
1.2351699849150668
1.4009655568880635
1.3114269889559689
1.407947197681191
1.4253243608616275
1.1699087516189193
1.150576609682364
1.4687520314979259
1.2533437779581946
1.4654921451254084
1.3396224595177715
1.5253727996410367
1.4800343489180752
1.2108957346609053
1.2037177123625322
1.5534662298775532
1.2784772447089963
1.6050789910262224
1.4559596914653026
1.6503415530988343
1.6189882364898005
1.15800038135075
1.1766975528622359
1.6679919790848063
1.390527774736521
1.7071569494110066
1.7411192845737042
1.1521140739039473
1.0970691272744824
1.6915536878616901
1.1353580029882047
1.0394965891289376
1.0533472853297012
1.0898041930608566
1.0363299693000032
1.0549574348635016
1.0146239432294344
1.0970305201062256
1.0459361084502679
1.0918857775959037
1.026146105125484
1.0617028273968168
1.1060810831047996
0.9960148108337021
1.0976884900314454
1.0445551279015564
1.100279137953664
1.027988130892021
1.0894315904046363
1.1000019907754521
1.1032498413384844
0.9840941570313015
1.1039285185009229
1.0507761348112599
1.1148864862287737
1.041048682039199
1.1334829729677727
1.099161822689917
1.0978259428866646
0.9791768712245685
1.1164827607609693
1.066122077843457
1.139317615962344
1.0686923037632776
1.1972460923578665
1.1039379039288417
1.0975749335856402
0.9848311813021482
1.1388751742984558
1.0938235393936195
1.17467199427104
1.112508088013483
1.2833144170935007
1.1161127630819463
1.1040103479137071
1.0010451113108454
1.171042139659709
1.1336425003784873
1.2227910738499304
1.1764945977277863
1.396949932521895
1.1374288816148048
1.1182963250096263
1.0297103992729943
1.2153904674139557
1.1859987824055525
1.282530277075071
1.2599650264346898
1.5393466139571235
1.1682523739434676
1.1420397223345375
1.0709400315933635
1.2720865769011296
1.2572339257631246
1.3618489764013721
1.375641523613536
1.7209549015874201
1.2139080638335507
1.1772136705370038
1.1309967532449123
1.347627547984219
1.3447585919192688
1.4567743360203282
1.5135150399250366
1.9444537044634211
1.2670557755552734
1.2230986909048474
1.2036086776054953
1.4344985502375533
1.4450753873820255
1.563949515913024
1.6846053165019932
2.2082735174958907
1.3364783984930169
1.2781824118468457
1.303357986642651
1.5431294330127576
1.5824714368599162
1.7033687546990244
1.9056638260472825
2.5283778656831544
1.4275649592596904
1.35036489041542
1.4453364542787055
1.6783487082055215
1.750200959085126
1.8623158951728338
2.156808656363853
2.896249478349695
1.5388411663364705
1.448296739076906
1.5692783350901331
1.8174955184757864
1.8773333597010518
2.013435606998997
2.4154406122860124
3.307835438366152
1.6453501317541495
1.550662966582146
1.606791125487534
1.9313540963778475
1.9337327119387306
2.1221934355310985
2.6341176020463504
3.7508221134557473
1.729329808417538
1.639265932317051
1.5818820335611374
1.9976032547914948
1.9803684040618823
2.2076289016998714
2.7959979703089584
4.175175125245368
1.774095201877743
1.6966610946570373
1.6353329751506678
2.053662447792241
2.07762041336311
2.268689388366694
2.920730180015536
4.479881545674571
1.7921234297022504
1.7225818306961291
1.7002665187394106
2.0685230493051296
2.032545239137628
2.209732794699763
2.9627479530492273
4.625499052537794
1.7946825691330888
1.7333098901046626
2.012098026752169
1.9785128486823744
2.1003992261696194
1.8896264925376904
3.2151506797637355
4.4980793264590115
1.7603820226567435
1.7177614885020915
2.140794809430104
1.7238620137464702
1.6782513115851607
1.4720912495334564
3.1774269709980136
4.340084040749097
1.713076164543193
1.6607098173087822
2.4309328722585666
1.5195372589558787
1.9101560741779784
1.2049205229269948
3.1708916872225776
3.4548422881170815
1.6684513168076591
1.6102194581819596
2.6855014565613002
1.4117225500306607
1.6961476030435358
1.1276042477638795
3.3906703907867533
3.355283823367442
1.605490467513646
1.5476024982617609
2.4146720831843473
1.3775288220529514
1.58984826954758
1.1212483636958404
3.00806756575704
2.994712019841681
1.5418888101538144
1.4857321533477283
2.179037932720692
1.3374269344057126
1.4839835837418198
1.1109724912785803
2.676487227046043
2.680693046445624
1.4812274717612839
1.429408889152275
1.9582250676834005
1.2961446574806077
1.3801836792972484
1.0911143615576948
2.3672908272069195
2.3904986375906896
1.4221448741233593
1.3807732452769033
1.7637716829738719
1.2477694504119912
1.289769463009283
1.062836548186956
2.0939500227864216
2.119427778633317
1.356814384777522
1.3261595125659773
1.5777710549319601
1.1954559435444827
1.8430341101556338
1.8852108580455065
1.303224451718597
1.2796499907266008
1.6931841613743006
1.23323179053603
1.1091051753539092
1.1283317330746634
1.179833842955791
1.0760361359860349
1.1086102155941246
1.0856179357721154
1.1882348008927237
1.1030764990520332
1.1541912542915136
1.0528039333649193
1.0624486912995925
1.2180582874809667
1.0651353655120952
1.1590205514400522
1.083636080707595
1.1264065113960715
1.039322258159483
1.0444493892922244
1.1921472012298957
1.2171413906696
1.0570636509967632
1.1366964287722239
1.0754280027261596
1.1122903498131438
1.0366451243350723
1.0374044466932917
1.1643482157409908
1.1871849481546817
1.0573925469312342
1.1249487352925125
1.075475541278387
1.106169382552681
1.0408731161765779
1.0384900453098123
1.1486520337372128
1.1636454352266108
1.0632314236960267
1.119443241478501
1.0800182294633964
1.1055362059715765
1.049996365076367
1.0457210519040712
1.1395202496951022
1.1499496892139827
1.0723933126423928
1.1190203746567207
1.087942121947643
1.1090512074537908
1.06205195019129
1.056441808392634
1.1359572510537999
1.1425500905852568
1.0826005800142364
1.1210678264388285
1.096011216348579
1.113369377267023
1.0743006848784002
1.0693008643607038
1.1343311286843643
1.1392513860964057
1.092994187575827
1.1233568455470948
1.1046189855398827
1.1176234825927065
1.086482651834202
1.0811997854711175
1.1339469332606216
1.1372227672260853
1.1028334173052565
1.1254503593030027
1.1114351199627714
1.121047564907694
1.098394771735316
1.0936688042283171
1.1329050588382408
1.135668269841471
1.11017651498393
1.1267226770571042
1.1170569685254894
1.1239906856537407
1.1076466071509217
1.1044665665598226
1.1321906200577407
1.1339702074435687
1.1188428077022876
1.1280321902534785
1.1252170618603823
1.1274727272833216
1.1178638112678578
1.1135480642580513
1.130840317434237
1.1322667558351363
1.1279158547056034
1.1288087614241311
1.1293400677516319
1.12797730904722
1.1282029050448996
1.1245251157652487
1.1292686398768477
1.1307407329167969
1.1296053762947185
1.125828848910837
1.1274044613281553
1.1249906926486857
1.1306820831341309
1.1307038249303405
1.125093782443043
1.1277021210321427
1.1276157581936406
1.1202861111457887
1.124341913322858
1.119426034954476
1.1288895968359034
1.1297550068098308
1.1189629823416967
1.1229324973767996
1.1267898506123852
1.1129473867818724
1.1199977300019033
1.1110711445397725
1.1322418738014717
1.1310677751542073
1.1097140009636504
1.1148695203321617
1.1187468022786777
1.1040265180486764
1.109723025483798
1.1039293267159271
1.3634304510497142
1.370133401962026
1.1031104808592922
1.1069217215321663
9.92424356523133
1.1007610490614037
12.042645410306928
3.2249565929048716
9.428349197303888
0.8585123063273907
1.0983941677140876
1.100646408179227
10.77326393243405
8.648482600100957
1.0978083792244617
17.04447314509785
1.0998699614196763
1.0854701832097053
1.12346987206613
1.1448349942843496
1.1943696902716694
1.0978077934546802
1.1578658544611993
1.1167367941433786
1.1387951662934732
1.0926679032052897
1.1659086421056912
1.176477692575295
1.1070932321221858
1.1468036638128503
1.1224271102720618
1.1400791698126316
1.103140202129361
1.1076438739011636
1.1551253299035706
1.1551596200286853
1.1233416054588976
1.1545375407678446
1.1412938187250286
1.154837694493406
1.1250557587896393
1.120188233609979
1.1666661034519927
1.1605293985874998
1.1435779841618823
1.1634255296185305
1.1727751143495813
1.1790787840378518
1.143920785964558
1.1433507738584459
1.1527937862814308
1.1563345138404546
1.203944425472004
1.166966019775055
1.1781204329972996
1.1348383576120797
1.1853687756383482
1.154542266318601
1.1655019388123007
1.166982959737998
1.1084819549965008
1.1093754641683602
1.0668500937108834
1.1110256782679624
1.110469745264405
1.1615325734315476
1.1389936290163303
1.1629924414972952
1.0803620502904292
1.1269486080081395
1.1125291827219534
1.114940155882585
1.0534356902628546
1.041911523951213
1.130451711063864
1.144146946171657
1.100326830373451
1.1080305768183367
1.0972530468099428
1.102545820094197
1.0972079554590708
1.0824839477799988
1.1145121335261856
1.1249248156461584
1.0917480000852904
1.1005024966608337
1.0930520348076669
1.0965137580989555
1.089571798927432
1.0919579707377043
1.1055793933287772
1.1141042734699897
1.0897879623452826
1.0965362224794362
1.0946313831878094
1.0979179200306741
1.0868018614280175
1.0878897327325434
1.101648690376288
1.1067031226637511
1.0966077362478983
1.1032832794725365
1.1062274767580045
1.1096164831397781
1.0903282307999604
1.0853657768226066
1.1053528995698894
1.105100008024879
1.1095084327578562
1.11682971963141
1.1178674309693053
1.1217997114610856
1.101387418341102
1.0918269568933126
1.1176995537135443
1.112555937319265
1.1182606341015924
1.12641831619016
1.1235665666839938
1.127791968280781
1.1110445726337013
1.1025303550846601
1.1271022302274492
1.123353459580509
1.120414788844206
1.1295540067569803
1.1224532454641245
1.1273670617801113
1.112749815282903
1.1086855316547997
1.1300817549840647
1.1290036305451547
1.115960528623443
1.128057900156409
1.1195292780802701
1.1267128332972494
1.1096120279017803
1.1084397711811587
1.1298532136063222
1.1296901234571086
1.1156040105092624
1.130625519262704
1.1225356068226853
1.1303735603591476
1.1099912112457049
1.1075679780950496
1.1336015330881737
1.1314841605726325
1.118926412098031
1.1365584016740187
1.1264149010256919
1.1362089370652175
1.1129210818792403
1.1109174773403372
1.140561442590824
1.1373526151014226
1.1219681740221321
1.1431804049724226
1.1293868120184576
1.1408050069292226
1.115211169772379
1.1136525665571484
1.148819247658857
1.1458508206684572
1.1230947786196472
1.1466092805623267
1.1306161930616776
1.142712500093592
1.1156770082125038
1.1152120373615613
1.1523399304085382
1.1521744994618688
1.1228430894320063
1.1486244191905282
1.1302765706144031
1.143961593341011
1.1144526213474215
1.1148079545699496
1.152685682419142
1.1525044131684175
1.120944880853057
1.1491481047025294
1.1288712084651127
1.1433894095879773
1.112066662885451
1.1130078845622127
1.1553245353087087
1.154199287175804
1.1178477323150224
1.1508527409771205
1.1250447956005043
1.1435316031397382
1.10809648095127
1.1102417391337542
1.1566555501195677
1.1553686493366038
1.1127580612182904
1.150135982747483
1.1218672370064406
1.1407583509963997
1.102779070285409
1.1053145533038709
1.3636969013651266
1.3628953308998286
1.107993631504737
1.3336781740611792
1.1149434660098492
1.3217368945763324
1.0964891258452076
1.1003837404140302
0.890878340687324
0.9115194362401879
1.099541424535158
0.9049586842882482
1.2778599660358139
0.8764837972224211
1.0890874088336866
1.0929849446488484
1.2581983122532534
0.7176551406794617
1.073802839929658
1.083010478010747
1.4487191118808584
1.9912658390343319
1.0758063955093393
1.5925377338065203
16.939356838699073
-1.9211294345955885
17.314188584733724
19.816810740982103
1.1008356395746208
0.9954666689221283
1.1399778408093075
19.215005595864223
20.337722540833827
34.015969478617386
1.1443748345397522
1.1459437164696449
1.1386343318285344
1.1729604867439376
1.193202186155497
1.083017169183721
1.434528294820646
0.6895554867963608
1.1475092367136595
1.1580657857441605
1.0651035138675495
1.072505130208832
1.0195402398317732
1.1371268731448316
1.2728719947947942
1.6968646300748529
1.1613906456266152
1.1464514345712262
12.876986196079939
0.9495362681352324
13.423947457271936
1.4935682114368238
1.1678989416733012
1.1649696237828944
13.751334015785492
1.4995928973832224
9.891692482960877
1.1723012371094976
1.1664534515659555
1.1593223489016977
1.1564038812485624
1.1809045265137756
1.5038887895911364
1.1643358635453014
1.1688767217086389
1.1514538016735463
1.1450734683301045
1.1360089590882714
1.1325470933979649
1.1583960117285195
1.174867848360949
1.1434661234672603
1.1526789483650641
1.1280248850905779
1.1209699583319845
1.1127860278587136
1.1091929667904268
1.1328839483490665
1.1478102324017334
1.1188839487639157
1.1288537389670519
1.1045280689730252
1.097646253315753
1.0889065109933358
1.0856177564043508
1.108245429256791
1.1213624514009681
1.0957782886551153
1.10523899256172
1.0814931446801166
1.0758963755095514
1.0713642954609162
1.0690562808793365
1.0898894677262247
1.10102019432321
1.0742933388815885
1.08214675511575
1.0797942603037411
1.0607042864130396
1.073023487244274
1.0562415279351525
1.0575274832919233
1.0574938414952069
1.0554435555304262
1.06219251336876
1.02891970380914
1.0497607827049862
1.0204876980933861
1.058110736298354
1.0499959276918478
1.0718329341151638
1.0458380656907829
1.0470580800383353
0.9988231136114298
1.0638158313820658
1.07482916159458
1.1021988411602481
1.0043070083755894
1.0470478167402533
1.0566397611295002
1.0470119490315846
1.7723327505326043
1.728418893926185
1.8736168412643281
1.8314375898076967
1.9450193976533379
1.9467540028031256
1.8268001137561116
1.838379605145685
1.939990182321773
2.0061851311531322
1.9720344506334508
2.036494794315023
1.8428759832279646
1.8010884710513129
2.0601237283806393
2.007634615368621
2.0664005064673496
2.031695414601667
2.2980915202356123
2.1989260846883574
2.0782221848952416
1.8867419299675345
2.1382452256907243
2.1969832026315874
1.9524123189917955
2.3630888721010748
1.5405905401538758
2.05043252881041
1.535681528516223
1.8931824081879316
2.265497406410563
2.207884430086903
1.160850932520195
1.5646317480050773
1.3469359738776252
1.2408748007059733
1.253107766389022
1.2161165835471301
2.134823097773075
2.523032412887895
1.3957559288325876
1.4028199963165278
1.3667051205386291
1.479830361194221
1.2862915149779255
1.32972839389179
1.2568501491788555
1.6650963033362984
1.2545903125090287
1.4267524003847887
1.2666061330766119
1.32564298029678
1.1960855975504439
1.1987359917253821
1.5296528047375735
1.4367609184093335
1.2050112706392426
1.3177765999100344
1.2091079032387504
1.2628363852893738
1.1563091140546966
1.159399261533481
1.366839983455779
1.4776067681953093
1.1659580725932388
1.2612306273364697
1.1770987028874647
1.2186427755800717
1.1323259431958466
1.1267736172568121
1.308358910107518
1.3590280516061668
1.1502787595792625
1.2225761828872697
1.1598765545901109
1.1906299052055107
1.1239213309263658
1.1171091448371757
1.255746910753492
1.2989417862173425
1.1455622292623255
1.1989472619093418
1.1593874719067823
1.1820191539383986
1.1279075663111313
1.11586446298602
1.22699024507123
1.2518436162336213
1.1543703394403209
1.1898261583772791
1.1621019328925113
1.174926069797853
1.1398343895865275
1.1271968591017947
1.2083518153715225
1.2285877940945304
1.1559625026197806
1.1768453841704256
1.1584737439324888
1.166532488577792
1.1469848741465958
1.138588354565533
1.1881547727507824
1.2047611153724533
1.1535805494510525
1.16410872843326
1.1521191259267143
1.1545885602636186
1.146640525940045
1.142556091948296
1.175450976363483
1.189184125088372
1.1477975571367864
1.1496217564992415
1.1457492708451096
1.1451040358706606