# vtk DataFile Version 1.0
Tissue data
ASCII

DATASET POLYDATA
POINTS 1594 float
0.169334 -0.732044 0.633306
0.133561 0.543115 0.9510959999999999
0.254907 -0.76768 0.439208
0.239842 -0.763141 0.48083
0.223988 -0.75718 0.5208349999999999
0.207817 -0.749996 0.558848
0.189392 -0.741707 0.596226
0.203346 -0.71974 0.641132
0.236387 -0.706628 0.646907
0.268919 -0.692525 0.650915
0.302093 -0.676902 0.653227
0.335769 -0.659749 0.653648
0.369772 -0.641077 0.652003
0.403905 -0.620915 0.648146
0.437953 -0.599306 0.64196
0.471687 -0.576309 0.633336
0.504844 -0.552012 0.622203
0.53715 -0.526528 0.608546
0.568336 -0.49998 0.592375
0.598132 -0.472522 0.573753
0.62462 -0.446039 0.554037
0.648912 -0.419645 0.532833
0.67149 -0.392917 0.509978
0.692526 -0.365464 0.485072
-0.271097 0.743838 0.462092
-0.248821 0.741154 0.5048509999999999
-0.223066 0.736506 0.5489539999999999
-0.196555 0.729927 0.591184
-0.169413 0.721677 0.631497
-0.13828 0.71252 0.668554
-0.106324 0.701953 0.704848
-0.0719922 0.689774 0.739546
-0.0393124 0.675249 0.773313
-0.00745564 0.658661 0.805908
0.023125 0.63995 0.837327
0.0525083 0.619206 0.867359
0.080576 0.596641 0.895765
0.107547 0.571501 0.923638
0.170014 -0.713601 0.674969
0.170994 -0.693857 0.715217
0.172019 -0.672601 0.754765
0.173023 -0.648991 0.7950619999999999
0.173988 -0.622895 0.83596
0.174904 -0.594176 0.877278
0.175759 -0.562693 0.918798
0.176532 -0.5283 0.960255
0.177185 -0.490845 1.00132
0.177665 -0.450183 1.0416
0.177905 -0.40618 1.08059
0.177821 -0.35874 1.11768
0.177322 -0.307829 1.15214
0.176386 -0.256556 1.18153
0.174822 -0.203372 1.20652
0.172425 -0.147641 1.22683
0.169144 -0.0889515 1.24177
0.165733 -0.0265747 1.25026
0.163838 0.0353111 1.25038
0.162706 0.0963715 1.24246
0.160482 0.156683 1.2276799999999999
0.157647 0.214397 1.20701
0.155571 0.268591 1.18142
0.152951 0.318463 1.15263
0.149933 0.364104 1.12165
0.146685 0.405795 1.08927
0.143327 0.443853 1.05608
0.139934 0.478593 1.02255
0.136564 0.511492 0.987721
0.171944 0.527627 0.95431
0.209147 0.511352 0.954964
0.245671 0.494505 0.952948
0.282752 0.476662 0.948045
0.320231 0.457943 0.940088
0.357926 0.438429 0.928963
0.395622 0.418178 0.914604
0.433073 0.397244 0.896991
0.470004 0.375685 0.876141
0.50612 0.353573 0.852118
0.541115 0.330996 0.825028
0.574683 0.308057 0.795024
0.606525 0.284876 0.762304
0.634648 0.262942 0.7292879999999999
0.660264 0.241469 0.695053
0.683805 0.220123 0.659185
0.705571 0.19857 0.621149
0.726094 0.17604 0.579442
0.743845 0.154025 0.53681
0.758807 0.132647 0.49360899999999996
0.135144 -0.732519 0.64944
0.0971254 -0.732034 0.664351
0.0552163 -0.730024 0.679264
0.012097 -0.725389 0.6942159999999999
-0.0319684 -0.717811 0.70937
-0.0765872 -0.70693 0.7248829999999999
-0.12148 -0.692471 0.740742
-0.163346 -0.675339 0.756022
-0.202372 -0.656781 0.768813
-0.241834 -0.636339 0.7788809999999999
-0.281586 -0.614156 0.785955
-0.321288 -0.590367 0.7899349999999999
-0.360637 -0.565161 0.79073
-0.397084 -0.540317 0.788522
-0.431994 -0.515087 0.7835759999999999
-0.465891 -0.489151 0.775928
-0.499236 -0.462135 0.765441
-0.533088 -0.433047 0.751491
-0.565117 -0.403778 0.734886
-0.595154 -0.374535 0.715877
-0.623069 -0.345518 0.694743
-0.648771 -0.316911 0.6717839999999999
-0.672215 -0.288878 0.6473099999999999
-0.693396 -0.261552 0.621627
-0.712344 -0.235044 0.59502
-0.729114 -0.209454 0.567755
-0.74378 -0.184857 0.540083
-0.756457 -0.161309 0.512215
-0.767642 -0.13794 0.483276
0.00222521 -0.809498 0.44521
0.0356175 -0.801085 0.477514
0.0668478 -0.790795 0.509032
0.0972578 -0.77827 0.540164
0.123585 -0.764926 0.5708449999999999
0.148348 -0.749386 0.6010989999999999
0.343834 0.718692 0.44087499999999996
0.330688 0.711988 0.492651
0.316268 0.703159 0.54324
0.300584 0.692446 0.592282
0.283933 0.680057 0.639516
0.266485 0.666237 0.684811
0.248551 0.651194 0.728091
0.230151 0.635156 0.7693989999999999
0.211611 0.618304 0.8087
0.192678 0.600855 0.84609
0.173644 0.582985 0.881481
0.154152 0.563923 0.916195
0.0957945 0.539023 0.969007
0.0577728 0.532636 0.985554
0.019729 0.523571 1.0012699999999999
-0.019584 0.51104 1.01643
-0.0599347 0.494705 1.0305
-0.100832 0.474467 1.04309
-0.141553 0.449504 1.05336
-0.183054 0.422589 1.06042
-0.224653 0.39427 1.0629
-0.266212 0.365111 1.06081
-0.307513 0.335484 1.05417
-0.348356 0.305685 1.04308
-0.388503 0.275932 1.02775
-0.42539 0.248064 1.0097
-0.460432 0.221051 0.988844
-0.494177 0.194441 0.965124
-0.527087 0.167799 0.938263
-0.56018 0.140164 0.907135
-0.591123 0.1133 0.873775
-0.619767 0.0873099 0.838571
-0.646008 0.0622854 0.801903
-0.669791 0.0383027 0.764134
-0.691099 0.0154227 0.725608
-0.70996 -0.00630992 0.686648
-0.726433 -0.0268681 0.647547
-0.740607 -0.0462421 0.608569
-0.752594 -0.0644388 0.569946
-0.762517 -0.0814845 0.5318809999999999
-0.770808 -0.0980618 0.493014
-0.775653 -0.0641149 0.486134
-0.773648 0.0941849 0.482333
-0.773884 0.0578365 0.49523
-0.772838 0.0221003 0.506419
-0.77059 -0.0128927 0.516045
-0.767203 -0.0471624 0.524365
-0.755267 0.194084 0.48609199999999997
-0.759136 0.155889 0.503694
-0.761444 0.117799 0.519227
-0.762234 0.0801114 0.532817
-0.761676 0.0430218 0.544485
-0.759854 0.00664913 0.554408
-0.756837 -0.0290122 0.562791
-0.724668 0.298304 0.476855
-0.732782 0.259962 0.49983299999999997
-0.739139 0.220976 0.520705
-0.743737 0.181732 0.539445
-0.74674 0.142521 0.555965
-0.748198 0.103606 0.570322
-0.748218 0.0651975 0.582598
-0.746916 0.0274536 0.592933
-0.744372 -0.0095958 0.6015119999999999
-0.693432 0.36507 0.481632
-0.704161 0.327388 0.507852
-0.713075 0.288495 0.532269
-0.720254 0.248805 0.554572
-0.725687 0.208666 0.574578
-0.729445 0.168399 0.592224
-0.731625 0.128299 0.607532
-0.732321 0.0886073 0.620571
-0.731632 0.049509 0.631467
-0.729652 0.0110735 0.640391
-0.656393 0.430319 0.480772
-0.66939 0.394733 0.509783
-0.680863 0.356976 0.537504
-0.690635 0.317739 0.563476
-0.698637 0.277471 0.587302
-0.704901 0.236552 0.608754
-0.709477 0.195329 0.627708
-0.71244 0.154122 0.644146
-0.713879 0.113205 0.658127
-0.713888 0.0727872 0.669762
-0.712559 0.0329753 0.679208
-0.615389 0.491042 0.47379499999999997
-0.629178 0.459346 0.506066
-0.642611 0.424488 0.536197
-0.654876 0.386916 0.565394
-0.665462 0.347495 0.593025
-0.674297 0.3068 0.618537
-0.681397 0.265242 0.641598
-0.68681 0.223191 0.662045
-0.690598 0.180984 0.679816
-0.692835 0.138921 0.694941
-0.693608 0.0972396 0.707517
-0.693004 0.0560773 0.717684
-0.5865 0.518106 0.494685
-0.600629 0.48701 0.528273
-0.613428 0.453981 0.560517
-0.626316 0.416984 0.591032
-0.637696 0.377563 0.620437
-0.647327 0.336609 0.6478079999999999
-0.655242 0.294575 0.672681
-0.661486 0.251845 0.694825
-0.66611 0.208769 0.714146
-0.669178 0.165668 0.73064
-0.67076 0.122801 0.7443839999999999
-0.670938 0.0803329 0.755501
-0.540273 0.573946 0.472692
-0.556199 0.544459 0.512309
-0.570702 0.513829 0.547501
-0.583956 0.481144 0.581383
-0.595881 0.446488 0.613764
-0.607644 0.407696 0.645081
-0.61796 0.366671 0.674576
-0.626605 0.324354 0.7015
-0.633627 0.281124 0.725579
-0.639064 0.237343 0.7466889999999999
-0.642959 0.19334 0.764803
-0.645366 0.149393 0.779975
-0.646355 0.105683 0.792305
-0.507359 0.599331 0.486023
-0.5241 0.570127 0.527035
-0.538985 0.540108 0.564058
-0.552672 0.507861 0.5996549999999999
-0.565069 0.473534 0.633752
-0.576132 0.437241 0.666188
-0.586679 0.396627 0.698193
-0.595829 0.354296 0.727491
-0.603487 0.310808 0.753777
-0.609645 0.266532 0.7769429999999999
-0.614312 0.221808 0.796955
-0.617514 0.176923 0.8138489999999999
-0.619301 0.13206 0.827704
-0.455531 0.648629 0.453721
-0.473063 0.623698 0.49687
-0.490134 0.595519 0.538635
-0.505692 0.565672 0.577805
-0.519729 0.534009 0.615162
-0.532551 0.500132 0.651017
-0.544088 0.46417 0.68523
-0.554316 0.42563 0.7183309999999999
-0.563502 0.383858 0.750185
-0.571512 0.340515 0.77889
-0.578202 0.296066 0.804357
-0.583506 0.250889 0.826548
-0.587396 0.205276 0.845494
-0.589897 0.15939 0.86125
-0.420058 0.670421 0.46105
-0.437425 0.646846 0.50481
-0.454251 0.620261 0.54759
-0.470396 0.590918 0.588681
-0.485308 0.559457 0.62779
-0.498491 0.526162 0.665419
-0.510452 0.490659 0.701439
-0.520836 0.452707 0.73656
-0.530061 0.412154 0.770011
-0.538241 0.369557 0.800785
-0.54526 0.325445 0.828498
-0.551004 0.280257 0.852998
-0.555379 0.234293 0.874286
-0.558366 0.187619 0.89241
-0.384017 0.690655 0.46602899999999997
-0.400876 0.668642 0.510289
-0.417081 0.643708 0.554096
-0.432598 0.615891 0.596974
-0.447268 0.585362 0.6385419999999999
-0.460902 0.552315 0.678616
-0.473379 0.516874 0.717058
-0.484646 0.47913 0.753696
-0.494693 0.439206 0.788257
-0.503529 0.397341 0.820367
-0.511126 0.353872 0.849699
-0.517396 0.309169 0.87606
-0.522165 0.263512 0.899505
-0.525225 0.216685 0.920379
-0.347745 0.709271 0.468346
-0.363707 0.688934 0.513201
-0.379059 0.665618 0.55818
-0.393878 0.639268 0.602697
-0.408086 0.609957 0.646294
-0.421577 0.577813 0.688583
-0.434258 0.542987 0.729226
-0.446033 0.505671 0.767896
-0.456817 0.466094 0.804269
-0.466531 0.424535 0.838042
-0.475111 0.381328 0.868923
-0.482467 0.336868 0.896697
-0.488379 0.291618 0.921345
-0.492039 0.24397 0.94467
-0.309942 0.727225 0.466642
-0.326151 0.707704 0.513294
-0.340522 0.68588 0.559708
-0.354604 0.66096 0.605722
-0.368273 0.632989 0.6509739999999999
-0.381435 0.602049 0.695082
-0.394028 0.568257 0.7376699999999999
-0.405949 0.53179 0.778375
-0.417104 0.492866 0.816838
-0.42741 0.451747 0.852712
-0.436786 0.408735 0.885678
-0.445189 0.364171 0.915432
-0.452588 0.318425 0.941721
-0.457738 0.270899 0.966144
-0.288091 0.725109 0.510266
-0.301701 0.704456 0.558584
-0.315072 0.680903 0.606
-0.328133 0.654344 0.652637
-0.340824 0.624794 0.698252
-0.353147 0.592298 0.742516
-0.36499 0.556995 0.785075
-0.376261 0.519068 0.825562
-0.386874 0.478731 0.8636159999999999
-0.396746 0.436243 0.898887
-0.405813 0.391875 0.93106
-0.414069 0.345851 0.959852
-0.421573 0.298081 0.985152
-0.262616 0.721357 0.554846
-0.27551 0.699058 0.603561
-0.28795 0.673937 0.65137
-0.300044 0.645898 0.698222
-0.311965 0.614875 0.743898
[...]
CELL_DATA 3056
SCALARS gaussian_curvature float 1
LOOKUP_TABLE default
1.163051488851338
1.114327517754657
1.1584642761041655
1.1736465939307084
1.156258184977566
1.133560277758446
1.2754100243692639
1.1532285884187767
1.3438023061262758
1.092342636099079
1.1627708162245538
1.126140387312359
1.1140499604966325
1.0570932769240733
1.063618283495084
1.0185937610248836
1.0425632137276704
0.964495423209064
1.4924420502130258
1.1936951196457368
1.148155004029975
1.2919608031407541
1.0055591980446796
1.0811969443880172
1.046738688541121
1.0712661228416902
1.4281346782368636
1.3742224931316058
1.1611597368472115
1.0789187971081677
1.2333829839354853
1.0527853881017486
0.9739589476177682
1.0452476550701455
1.1541402335618676
1.079289601027404
0.9228336790223595
0.9982315267396689
1.3880895037387253
1.4041016681900844
-0.5482442533995937
20.339143979012817
-1.225660226594528
1.2139766811991888
22.109881114781746
1.2074745323588616
1.2159907335290088
0.9230880223635778
1.2062012790871803
1.5927285934465034
11.874836680367782
1.2000410044307586
1.1240472943752602
1.2013503891169077
1.116840477891262
1.2092949858642346
1.2089531116803292
1.395590355214253
-8.74751064004596
1.2078819177553957
1.3139457242372488
1.2053675577133065
1.2080900105082946
1.0149645664684295
1.0894023809614355
1.1799247668427957
1.2618531742012185
1.1123908956927204
1.1634553848810325
1.132551942643152
1.0870801848215808
1.0655803172662137
1.1751981269486986
1.1177273794121032
1.160064043374695
1.13349673807598
1.1943899617054496
1.0907782402188504
1.0802920925787594
1.166374238903088
1.1176958356541693
1.1526649362182066
1.130553838268003
1.186729992730202
1.1996116319585601
1.09303623016438
1.081887993392938
1.1571250657122065
1.116572019089435
1.1456198463373866
1.1271778976648186
1.1759959243485296
1.1918915486816437
1.094623375670313
1.0839455893590915
1.1493712534874092
1.1158457240573942
1.1403766315461414
1.1252930507886942
1.1636123395287024
1.178731791015003
1.0964912179747395
1.085874748163042
1.1431979482682566
1.1174585653490272
1.1371379147879004
1.1264821126261182
1.1530117615312065
1.1644315308503848
1.1015117726486037
1.089991752005616
1.1426259748644534
1.1227328869153836
1.1413205378534532
1.1320832520661657
1.149435269689309
1.1537610228757063
1.1085536146060528
1.0963560476163636
1.1477452915089974
1.1301557857165692
1.1467696747487872
1.1384174547436463
1.1544769770913368
1.154861518260648
1.1176227638197727
1.1053709578600381
1.1520132530752085
1.1387575891934292
1.1536628311394357
1.1487593872627975
1.1560607728775278
1.157548880133446
1.128054112195274
1.1151809558486947
1.1595481160575054
1.15030188372314
1.1635274136628027
1.1591846252050757
1.149606137603999
1.1477683724882488
1.1388713441447487
1.1266253706862506
1.1636083650514175
1.1613493129969088
1.1724559148568399
1.174539651260058
1.4626331484638984
1.4526102186217773
1.1509355948170623
1.1373403674468376
1.4789536773292804
1.1784945800015558
1.4894855547693393
1.1869427210383963
0.965040404042294
0.9575674249823343
1.1635625009622794
1.1491938540409352
11.99482030880436
1.1841961467936228
11.686619079302828
1.1785377510230335
1.172928624735124
1.160743119940621
11.203386894539888
1.176050096257778
0.9591491133952814
1.4398936433929665
1.177158755295539
1.1683788880022956
1.4385697676086961
0.935888176092927
1.167969260944009
1.1704017957660402
0.9268873156151264
1.4196474091130122
1.1580477629261259
1.407358283108958
0.8997454504209283
-16.50724364199202
-23.457970683781475
-9.581089053221957
1.1936538824400138
-5.751657117150132
1.1793437956016473
1.1847598378009596
8.12316349739114
12.729970502553407
1.1794750772717322
1.1828301034527975
10.909732956999308
1.1600814624642342
1.1438512945998776
1.1443442905331733
1.1226980804695048
1.159739965810675
1.1648234937798063
1.3486884109942339
18.050987028344757
1.1429068257264328
1.1617746645678286
1.2272348335975143
1.2677488825025787
1.148679760949474
1.1497757291026558
0.9886501674094644
1.1544106997054966
1.211382651076285
1.3674355683177655
1.042727244658408
1.158266112994824
1.097799604684261
1.1194247224285319
1.213537358502653
0.9407261755291022
0.9439092244733122
0.9230587548695508
0.9375205653821767
0.8011312274419995
1.0819772224690931
1.0672121962621652
1.0519339680911022
1.1332431164012629
1.139777398485084
0.9180642933827619
1.1054818645824454
1.0201580974203002
1.1709071699524656
1.1067183348453389
0.8711248271798429
0.8830669744606316
1.0902770911432444
0.9911062986096602
1.0198321523673335
1.0059851269958942
1.0024183204454933
1.0487528653520757
0.9788806586793947
0.9609929912871157
1.0620369211430747
0.9980186122231811
1.0933874902417875
1.0432162066933333
1.1359349930434148
1.005871453569923
0.9666457646255422
0.9623866394679897
1.1597591771978708
1.0216664335406358
1.1743051328725573
1.0863836727637766
1.1846772529769218
1.1922036379211791
0.9982502864909368
0.9884272120459954
1.244804666652081
1.0585569032961737
1.2331745111032648
1.1348482078561384
1.2951018277421422
1.2495203697416701
0.92728578565931
0.9316964080772138
1.3016481380702092
1.0747724822960296
1.2752476522957688
1.1466982997687156
1.3792852849223487
1.3611088190454659
1.123903102349513
1.052707710272758
1.3447704802034934
1.0031583713920462
1.4549009292681512
1.463015248212566
0.8807405214726041
1.0734110699027566
1.4443077676981253
0.8903094431084386
1.0602503349467214
1.0312800908061754
1.0431350796966785
1.0052550059635579
0.9371362077429584
1.014391684987186
1.0486832042919476
1.0093434739866431
1.0317800044009018
0.9728465530216084
0.9347396298574344
1.0643403496186612
0.9801415317993591
1.0354963253654215
0.9938136386463454
1.026731901798149
0.9564121834843967
0.9440689937061031
1.0439450488318136
1.0558858731940075
0.9525269448350501
1.0277613712226865
0.9861499569592116
1.0284661201950445
0.9511452362881667
0.9687025817844997
1.029297124129511
1.036716378171366
0.9330452999189565
1.0272128876320954
0.9876598610656196
1.0395112855429256
0.957261848472091
1.0089847969654628
1.0208047532186293
1.0235937386884029
0.9242600265678047
1.0364349960021957
1.0034807937204815
1.0638043386775662
0.9795988281400376
1.067215211190987
1.0208593188477553
1.0175274739750193
0.9294011707421815
1.0594132603064985
1.0324997251592538
1.102188269766486
1.0224481196566049
1.1518665442071376
1.0314502814940831
1.0202656827107104
0.9509466381741015
1.093049109825581
1.085363602991688
1.1577775300359354
1.0990478775246477
1.2736479134242238
1.053238522468659
1.0344147035971483
0.9963289455294502
1.1485047988858663
1.1604862665787261
1.2402481928908948
1.2033095934928024
1.4404454903055863
1.0903047115795348
1.0597668553726816
1.0612859244453743
1.2256255631574644
1.2602521694790272
1.3448298818789486
1.3545189245236349
1.6606999146203387
1.1456780844668488
1.1021006268939477
1.1558693353971425
1.3247761177643678
1.3888764870438466
1.4732055570111504
1.5551510230675492
1.9527668572276944
1.2199447473954375
1.1600510328194027
1.2907138315810265
1.4508461723023753
1.5698656735925578
1.6456689443466028
1.8285574276147047
2.3260017707479315
1.321030457242516
1.238558471582361
1.4879369828268045
1.6254483199909449
1.7966839280217874
1.8583919944318827
2.162956890618923
2.7827291774183545
1.4547733321972391
1.3451782414930378
1.6723412616333908
1.811719568926716
1.9942544252859857
2.0719246661692154
2.538105995416822
3.337468569597337
1.5979790616729637
1.4739764993844249
1.7843373482826559
1.9790809445553537
2.1286375131944792
2.2457108685839478
2.915184934927008
3.9908667457137694
1.716123781181604
1.5952269955417133
1.7985451710988964
2.103873268376845
2.2354716081796444
2.423726350068125
3.1954845896023603
4.656424518342296
1.804620830139995
1.683501266973348
1.9446644850474522
2.2099065225722736
2.4771076439691173
2.5540949396054584
3.542423731860208
5.2301702734958635
1.83371543419781
1.7482828234568113
2.057508800833526
2.273189958973261
2.348006382453093
2.4867002449564874
3.526280058315087
5.543638148263433
1.8374808399988678
1.7421947322566014
2.174848295445666
2.122610911429323
2.241900176822639
2.050968930302902
3.553267020713868
5.195196365202856
1.8191464898784968
1.7475267044312672
2.394404958619556
1.818810046639412
1.932471556828765
1.5478078913683577
3.469838011662034
4.6957519551333196
1.7494247030695624
1.6781191651822263
2.651979060376151
1.5542532343908375
1.9371807259828797
1.2241185654579734
3.4357534222948836
3.7916789717899757
1.682981316757628
1.6071506301652991
2.674449432758296
1.421215821315879
1.65974002732487
1.1195685764073593
3.3972228165359657
3.4437284716792824
1.5943974667204963
1.5260282932293814
2.3044609150894253
1.3555314009276733
1.498836802186817
1.090078738942576
2.873126867332998
2.9511793633461125
1.5001170612381258
1.4373358821224291
1.9994787739851287
1.2875117447868234
1.3618749117575402
1.058665945803476
2.4479671748472738
2.5159911552925345
1.4104964435712628
1.357649098037468
1.7423384765237107
1.2282425367687275
1.2467667001972664
1.0358797263963477
2.0831780512439053
2.1512028873398794
1.3348239296138522
1.2882320374330398
1.5270178936769696
1.1736016732504058
1.1456769737613288
1.0031477271356837
1.7833936488224404
1.8439820300629322
1.2659446209355831
1.2348040669266498
1.3411880626319261
1.1198323755223005
1.5242174088628437
1.5850820751377173
1.2070491499638014
1.1827074492623617
1.406533418587265
1.1363971585129689
1.0098296361745658
1.0254511587495425
1.0771680485534822
0.9725593239132768
0.9950031604356384
0.9834960409026849
1.0867788658835613
0.9997806201341297
1.0513465553110664
0.954382514919252
0.9590673205048206
1.1216662751416084
0.9661874200729654
1.0609264513057517
0.9856225004005073
1.0287955964563569
0.9457988107322892
0.9502784848100205
1.0945283533877859
1.1198358666511476
0.96516254739264
1.0447366367886048
0.9861344289193401
1.0225354222594554
0.9509762624103462
0.9510476060775372
1.0756815630320766
1.0933424247818628
0.9748973441345086
1.041161870717536
0.9957556459373593
1.0256191791802718
0.9649660466562209
0.9620168464587586
1.0658157504214745
1.0781342282068656
0.9908263972124887
1.0446025864060307
1.0111650021210008
1.0350776580716303
0.9846413543775285
0.9796393056241115
1.0644779579438086
1.0701484304219877
1.0110657341592653
1.0535891566406579
1.02938754885847
1.047998315389233
1.0071552170686597
1.0010694421954351
1.0683744853797574
1.0697383583485078
1.0316299634615351
1.064222680529327
1.0476784712331195
1.061660421770148
1.029770380311097
1.0236174486174263
1.0748000599899368
1.0733610235889424
1.0521768623534768
1.0754541552487744
1.0658583596869464
1.0751537020452155
1.0526016975517158
1.0462437232809203
1.0822132119750696
1.078996857957053
1.0712665788296363
1.0855254186428984
1.0824368650062681
1.0874003624612611
1.072992983969645
1.0680096000251944
1.088701235582968
1.0850885757115802
1.0883274993995347
1.094558252050223
1.0967833396573612
1.0980505948530566
1.0912679902334195
1.0871037609801617
1.0940997983276006
1.090117725678708
1.1040958260081948
1.1030187950877952
1.111596185819049
1.1092518997029541
1.1089401274438844
1.1045681319269358
1.1004558269228508
1.09502917296549
1.12017853065171
1.1111988840679135
1.1229526978434896
1.116317337375788
1.1248116234774588
1.1210735800804876
1.105164048497727
1.1006540959678233
1.128091087460291
1.1137484190033513
1.125662403105589
1.117955095116351
1.1335347307331065
1.133029433942054
1.107096270717884
1.1036303535201342
1.1301504468766777
1.1130451811288138
1.126139409243704
1.1167414514850784
1.135124657057287
1.1360802565590138
1.106473807791331
1.104731573493401
1.1311656784055124
1.109557188568167
1.1229886940218512
1.1107781619431316
1.1382657113716095
1.1382136523904105
1.1024725586933761
1.1030854482728047
1.1194201072235692
1.1031148292779558
1.1083807156634236
1.1042859697965295
1.3789854292717543
1.3896540490361333
1.0983545370127925
1.0989332398031775
8.892607636648101
1.098457162895795
10.711999265810668
2.921943537925255
8.434395684292324
0.9097340853558331
1.095567617792092
1.0966361324276632
9.303022364399743
7.477663789449887
1.093695417871697
14.599499537135689
0.9240948512870746
0.895705426642627
0.9607318607053497
1.0151934413118946
1.230695371854737
0.9320154195577534
1.0273082512825922
0.9667267014432934
0.9969930991054097
0.9029308245519612
1.0528530030407326
1.07737520248831
0.9545683915608393
1.0095557827834518
0.9690649977273831
0.9937859912878795
0.9488638901030534
0.9319376049797152
1.0306482469965947
1.043630315076693
0.9704834697554781
1.0103808448557479
0.9900380471048711
1.0052144286446447
0.970616529613535
0.9634935561276543
1.0330116343578022
1.0375092450030765
0.9955062157823106
0.9963068331014713
1.0152994209929065
1.0009236567722937
0.9988998910774683
0.993564782258086
0.978592068617652
1.0101304536628797
1.007400995307466
1.0593336041229984
1.0618317971429694
1.1281401701791147
1.0008439791094388
1.0121360800900372
1.150213640457034
1.07408892862251
1.0579243977867985
1.1556268828705103
1.101814991457783
1.1332091035053498
1.0867444577609333
1.084094840919077
1.147091039086427
1.210484362729067
1.0656764591420242
1.1134758423951678
1.0844060426154418
1.1008113138210187
1.0408748775583019
1.1058334698481955
1.1203511489929474
1.1315485663190459
1.0606297681619505
1.0928766838349775
1.0658734936548426
1.0817151381222927
1.0460547181619775
1.0450294110317464
1.1064459933283786
1.1212559299121996
1.0521534866941935
1.0828682417241537
1.0588898777436566
1.0737629883061668
1.0362774468271947
1.0354224037878712
1.0954645971162262
1.1078808030077667
1.049205251172417
1.0774081216651215
1.060071537143725
1.0734012970739193
1.0327685303272147
1.0265771170314555
1.0898003515583106
1.0987515735914284
1.0568155443813128
1.0826728562716743
1.0726736017660286
1.0852011537261959
1.0388765150093628
1.025695786926573
1.0924844151051802
1.0956050858006143
1.0723385322013543
1.097008864532988
1.0874181157008334
1.0995608960722998
1.0530184712363861
1.0354145114291105
1.104541298911247
1.1025451469379606
1.085604401601159
1.1089279610713285
1.0981777349519526
1.1093585140506552
1.068623291309601
1.051116944444307
1.1161375488282443
1.1143029182074744
1.0930607510939212
1.1163789338094876
1.1017292790895632
1.1138666827064267
1.0762435663945058
1.0643794399609787
1.1224239578464517
1.1226131258445353
1.0934089366448747
1.1194785119614672
1.103515150729581
1.11744732242931
1.0786142615396925
1.0701174192849656
1.126634946027175
1.1270681408090986
1.0979804504090045
1.126700472690384
1.1119752117271375
1.1267630623087876
1.0848733717386847
1.0756133969540793
1.134824324549996
1.13272760835463
1.1075163497969158
1.1386998757816114
1.1214870190555792
1.1378826944586244
1.0940397136337092
1.0853914968936111
1.1476556805937908
1.1438427189805793
1.1154186848266936
1.1493413376665378
1.1292346268104676
1.1467616042472666
1.1014739152619957
1.0940656133276747
1.1602618728284095
1.1577590344326756
1.1215454985220126
1.1569380442244661
1.1346237465929594
1.152489314858614
1.1072776419347392
1.1010220006584963
1.1676086813245656
1.1683527765092379
1.1246135652048712
1.1617980820462228
1.1373491983820974
1.1566681469577946
1.1099986886553712
1.105741013456186
1.170472824479907
1.1718346943923976
1.126196715915769
1.1647434185946923
1.1385851619219158
1.157812916025142
1.110710054202376
1.1072476601192043
1.173902825574399
1.1745022963711855
1.1254030604888883
1.167877442244086
1.136491340100127
1.159737967752099
1.1099866435953318
1.1076820833149663
1.1726114982950464
1.171706379055809
1.1218506210171248
1.1621870495898172
1.1330026399328543
1.1500924408535749
1.1063467207155777
1.1055710229050235
1.4007462301922662
1.403031204405508
1.1168916282018788
1.3635903511631684
1.1204555310409068
1.3500644530814758
1.1013457410615637
1.101952852490992
0.9457879168678802
0.9708491871607356
1.1020274848528742
0.9509061821853617
1.2923503101924145
0.9116200854843333
1.09271434106848
1.0955965001161978
1.2737341743604593
0.7773275031676719
1.0761292528997792
1.0854322449473404
1.412505990732969
1.9068928931795626
1.0741094841535852
1.5263097570702768
10.551432991402033
-2.7706307053291344
12.965497621135762
14.10928427598096
1.0275930858652382
0.8355216801441927
1.0758941867596383
13.600169875653064
16.750486833860226
27.361716098462928
1.0923134987725749
1.0790789203026656
1.2068502795463372
1.1099876862727438
1.2325552775933875
0.8953201777043486
1.3856642475219947
0.5052212477919548
1.058896469081968
1.089523382476199
0.9382106527307638
0.8685646810625326
0.8290866599223009
1.0966757881431086
1.4454149815026873
1.9185735743409689
1.0647660259505765
1.0404303054016164
12.52412309514241
1.0095358949532445
13.034634582150268
1.5169538369625166
1.174857825458148
1.1717642804595625
13.370000333973147
1.525675315268051
9.314199274760986
1.177451012025787
1.1726363180487818
1.1580341959589882
1.1563130469805685
1.1916310314539031
1.524403596709142
1.1729104602873688
1.1807599010036842
1.1424413209478383
1.1414131612256924
1.120534821074875
1.1212278103311486
1.1494286526439579
1.179201547083224
1.1426269985069082
1.1578010265003715
1.1091951292375384
1.1050526172977084
1.0860188550451821
1.0811833538490785
1.1071303362992686
1.1254573598327247
1.105023804819194
1.1224128351338498
1.0616886242566719
1.063457671003881
1.037183677884479
1.0437882258277917
1.0675412602995868
1.0898066981498276
1.0665856332429755
1.0842825036096584
1.0276188742522014
1.0288983958640512
1.0111604249497534
1.0058353986182902
1.0057449712452546
1.0211624109204473
1.027980489776346
1.0459982819791813
0.9885411068526921
0.9922392225245574
0.9753079390565937
0.9843310810599222
1.0605664513114161
1.0613118664015309
0.9967343105886799
1.0094125805947078
1.001655463252668
0.9799336530633302
1.0029208683631463
0.9721759161704802
0.8791135819796527
0.9247914022423025
0.973245994123215
0.9821385101839295
0.9642309409314034
0.9627818583486276
0.9550997360391218
0.9843956056490122
1.092111196430873
1.0082592425896006
0.9598974097267978
0.9626038086085351
1.4956818138682433
1.4418953003060242
1.5868159301051135
1.5353073128869728
1.6337733237322976
1.636051220076376
1.5435562028794099
1.560810097443087
1.6449903079665353
1.6988159423550437
1.6607319509420642
1.7122796889864942
1.5559159263967683
1.5014392149368272
1.7672129557093874
1.729951017986834
1.759740913602796
1.7256291381995492
1.9726964500526953
1.8870369366050188
1.7182550383681376
1.5301716941376386
1.8598407001970716
1.9148882643383596
1.7179298078282974
2.0557076565073302
1.4117109578266476
1.8351483199533567
1.2872787313012104
1.5005594982909498
1.9894282077764693
1.9549690498716803
1.1013980029391648
1.4513639375600849
1.2809090389578972
1.2074376114521082
1.1545595359015413
1.0342214142619373
1.9282280455877903
2.245732979250201
1.2909909615391117
1.349251879845187
1.266607839960408
1.398340185772272
1.1656646370878614
1.2087442474690233
1.2317307365326249
1.5667805761672513
1.1400035660886432
1.344372776230244
1.1537636335382726
1.2264004978680094
1.0771017736599957
1.07837972308051
1.4709381548556064
1.4073844210850723
1.0889195321901581
1.2233919164742426
1.1016863198958675
1.1635218398502156
1.0413155085070607
1.043257817426528
1.2824434615935538
1.412017421612683
1.0593357783050485
1.1674544319382416
1.0741650427937586
1.1204481764726038
1.0264084053701736
1.0211549232778951
1.2195681681768593
1.2746871212081445
1.0492903215598581
1.1258612598324214
1.0674071017884819
1.0976949063822001
1.028174522686565
1.020121870985591
1.1671533132860192
1.2138539661648196
1.0601621585259813
1.1084630704291139
1.0789033372738204
1.096916444583235
1.0436733049565026
1.0298024493457103
1.1329194076219649
1.1634432970286488
1.076914998290922
1.1032845842327095
1.0870777342079503
1.0954342128403232
1.0662535211446296
1.0517530065580494
1.1194373280890875
1.137525525632464
1.0862760807162297
1.0975574279486913
1.0895328512641846
1.0924577198642733
1.0823650661462707
1.0725052424916985
1.1056722882885832
1.1197018170365929
1.0913428745585358
1.0904375169136424
1.0904795313524625
1.0866493051074801
1.090472970151501
1.0847519322871906
1.0927578108796043
1.1028928741701272
1.0938181144377426
1.0818719890126318