# vtk DataFile Version 1.0
Tissue data
ASCII

DATASET POLYDATA
POINTS 1594 float
0.1328313794628129 -0.6359524616571751 0.7603106886529453
0.1066297800240694 0.4047125781327494 0.9083058242012996
0.2209924094480256 -0.7267791510823963 0.650449460304464
0.2031252447068574 -0.7095306264681777 0.6748639773035122
0.1855630788288996 -0.6919817997965816 0.6977586074333374
0.168360056562606 -0.674241466768293 0.7191642084295234
0.1508815861346915 -0.6556775896402923 0.7399118986668003
0.1649563627378416 -0.6261720204564165 0.7621354317155015
0.1961770079344771 -0.6159275761589363 0.7630861089724069
0.2270176970858599 -0.6050786722046205 0.763213861525871
0.2586208153934897 -0.5931928367851336 0.7624893573706367
0.2909004714578899 -0.5802278260914835 0.760831612025377
0.3237528199618408 -0.5661500434340381 0.7581621609646485
0.3570566204313227 -0.5509364261916729 0.7544073803836934
0.3906740202723732 -0.5345764242444231 0.7495009984822998
0.4244520030503946 -0.517073839654353 0.7433867155086333
0.4582245998012876 -0.4984483778836076 0.7360208046537006
0.4918158525610472 -0.4787367799743144 0.7273745442193582
0.525043387318105 -0.4579934627257903 0.7174363433801265
0.557721965365616 -0.436290934491518 0.7062136097181759
0.587772635840951 -0.4150980385511189 0.6945184235369872
0.6164366386194611 -0.3936805900357524 0.6820248225403164
0.6442151781117667 -0.3716976499724652 0.6685516895747753
0.6715462968755969 -0.3487679417543008 0.6538480355283229
-0.2320855227009285 0.7036418279849097 0.671683567445401
-0.2077740801173113 0.686889519784208 0.6965285456829188
-0.1817308883456457 0.6680632937824599 0.7216714238532685
-0.1556386381139611 0.6483208824368677 0.7453896401549619
-0.1296301337177091 0.6277918942455352 0.7676111503762871
-0.1038311461484904 0.606611624109045 0.7882887023963726
-0.0783583969023357 0.5849177500818132 0.8073986976789481
-0.0533175946219824 0.5628469094909944 0.8249397363004297
-0.0288019830265301 0.5405315865944643 0.84093057132065
-0.004891464693201 0.5180974700878586 0.8554075967520198
0.0183477311124549 0.4956613491206297 0.8684220530142848
0.0408629393639991 0.4733295299002044 0.8800371433863816
0.0626148420131762 0.4511964904632499 0.8903253133635953
0.0844181444397899 0.4284562631923492 0.8997103642247521
0.1345316962671594 -0.609685690049556 0.7812431252006752
0.1360466419909828 -0.5833445047426834 0.8008499609675238
0.1374075405839661 -0.5565212739066204 0.8194919937856472
0.1386591082667793 -0.5281887276433691 0.8378292639541371
0.1397840786203739 -0.4983418082246004 0.8557376882417514
0.1407648265950308 -0.4669936394668588 0.8730846529528273
0.1415837806733883 -0.4341773342431393 0.8897314267604035
0.1422238766181899 -0.3999477944823887 0.9055358787944991
0.1426690582926063 -0.36438303744715 0.9203556937214188
0.1429048084217335 -0.3275848363057554 0.9340520280787867
0.1429186838252173 -0.289678536481658 0.9464934674941032
0.1427008259069127 -0.2508120363622697 0.9575600757740744
0.1422444270462187 -0.2111545314363461 0.9671471998967736
0.1415949207580893 -0.1733260132728022 0.9747327367467538
0.1407517380432453 -0.1359193932774875 0.9807706209369614
0.1397063764040826 -0.0983175356452602 0.9853998480547348
0.1384359115192188 -0.0598893778829987 0.9886589313837748
0.1368683204681381 -0.0191588306598238 0.9905039590288296
0.1350911239777325 0.0212134721983485 0.990706065406286
0.1331202011810847 0.0610364273397483 0.9893186646920424
0.1309735350925808 0.1001352506357013 0.9864158037289465
0.1286706581569184 0.1383537188376049 0.9820888544241582
0.1262320637115241 0.1755562501630927 0.9764429054998062
0.1236786346005221 0.2116291565724834 0.96959300948061
0.1210311190210595 0.2464810218939948 0.9616604890357144
0.118309673192498 0.2800423008016016 0.9527694762564975
0.1155334778931345 0.312264327283099 0.9430437975788112
0.1127203990418573 0.3431182329063074 0.932604150064276
0.1097704741155799 0.3737709991446876 0.9211025424562208
0.1392101026689114 0.3964080255333175 0.907558662754226
0.1709039666368606 0.3878573488447683 0.9058364468403016
0.2022423897086107 0.3789374485604463 0.9031528367063856
0.2343874649354917 0.369298047695959 0.8993671840165562
0.2672549232406639 0.3589169552743598 0.8943893408848225
0.3007421550709761 0.3477786863837159 0.8881338627892982
0.3347286916669287 0.3358756529849326 0.8805227670312095
0.3690769071539016 0.3232094004464157 0.8714885012259336
0.4036333926567382 0.3097917135091602 0.8609769822532543
0.4382311065930868 0.2956454885498201 0.848950541800108
0.4726922957371519 0.2808052880429679 0.8353905983894748
0.5068320470687676 0.2653175385553259 0.8202999023402927
0.5404618273057433 0.2492405844086923 0.8037044700653116
0.5714385110347435 0.2336544424233302 0.7867788605538082
0.6010357248828911 0.2180069729291262 0.7690141806266658
0.6297695976595656 0.2020463533744429 0.7501450152836153
0.6580946743427227 0.1854984235925625 0.7298271643884582
0.6869794602164452 0.1677003706578324 0.7071613883687523
0.7144605499780521 0.1497973992581819 0.6835521648956453
0.7404462869426499 0.1318829926811146 0.6591494460921095
0.1016534416887485 -0.6290021466922311 0.7708287961724261
0.0710670807100631 -0.6215209497589331 0.7802674045037405
0.0405707998716377 -0.6134142789451529 0.7888185382530157
0.0090231252273789 -0.6043517684683967 0.7967665068648565
-0.023519050420357 -0.5942847909703999 0.8040107173614449
-0.0569801786461607 -0.5831717294849111 0.8104480691474678
-0.091265801658801 -0.5709798780234959 0.8159753166629385
-0.1262624543980082 -0.5576874506389168 0.8204916747561841
-0.1618381875806838 -0.543285509239378 0.8239017094490088
-0.1978438530164583 -0.5277796711326161 0.8261184190214826
-0.2341151925013219 -0.5111914670878838 0.8270663600271816
-0.2704756367620309 -0.4935592663858262 0.8266846481049954
-0.3067391728114767 -0.4749389795809347 0.8249297069926322
-0.3405646624157744 -0.4566018380589506 0.8220066079517901
-0.3732946287532988 -0.4379291709823633 0.8179442158178027
-0.4054883863907064 -0.418627452712889 0.812707054078033
-0.437667001064284 -0.3983582861426661 0.8061758475732131
-0.4709834894825553 -0.3762806816413587 0.7979642749605664
-0.5032083349828835 -0.3537968190155871 0.7885219571131984
-0.5342156932369024 -0.3310331954525261 0.7779371401571832
-0.563902835080285 -0.3081148054751678 0.7663107146440962
-0.5921903064418063 -0.2851626674979283 0.7537530329148989
-0.6190218125033832 -0.262291329408349 0.7403805239652246
-0.6443633716757672 -0.23960678354129 0.72631238940384
-0.6682018031215281 -0.2172048920033233 0.7116675549060422
-0.6905427086413776 -0.1951703333349451 0.6965619935991885
-0.7114081543622824 -0.1735760067099857 0.6811064667838815
-0.7308344236886573 -0.1524825940820302 0.6654045194898973
-0.7495792809322424 -0.1311095821734801 0.6488997989051769
0.0037946803760674 -0.7541301418312903 0.6568140394283966
0.026670458200778 -0.7354668331562302 0.6771356150059659
0.0488653886707359 -0.7164272255265726 0.696048420728401
0.0703325592535529 -0.697133488079083 0.7135831679216661
0.091037869207894 -0.6776983617648672 0.729782833038644
0.1117582293392009 -0.6574267038464786 0.74528469337777
0.3099269072330226 0.6900441692815678 0.6541522583199944
0.2930114212233133 0.6683789821672974 0.6837767095855334
0.2758424690702136 0.6459196304074133 0.7119277623917172
0.2585161189321707 0.6228113268144728 0.7385276995372289
0.2411259144685091 0.5992011499085067 0.7635240468573469
0.2237609001483908 0.5752344439749325 0.7868886590626686
0.2065039507518815 0.551051567119734 0.8086161029310115
0.189430486554047 0.5267851521616924 0.8287214420505178
0.172607587148577 0.5025579481790244 0.8472376095893956
0.1560934589393466 0.4784812181827062 0.8642125828980527
0.1399370293678895 0.4546533854598242 0.8797066887544744
0.1235415012352805 0.4302053773985354 0.8943375695137825
0.0759071816198184 0.3935778992975033 0.9162520272111502
0.0457940394124477 0.3822639752447719 0.9230177423716348
0.0157954924943892 0.3706018418199142 0.92875751343353
-0.0152102252306184 0.3581391160126961 0.9336443335107756
-0.0471645986375826 0.3448599903954435 0.9375684462208904
-0.0799908435370251 0.330757000332843 0.9404197709721172
-0.1135937304231947 0.3158322011531097 0.9420907033104542
-0.1478595675164795 0.3000983740519222 0.9424791774998174
-0.1826567979743401 0.2835800439241356 0.9414919761936292
-0.2178373462246589 0.266314195300812 0.9390481561678894
-0.2532387493252169 0.2483506009293989 0.9350824141972972
-0.288686977011368 0.2297517348952905 0.9295482070651608
-0.323999310871349 0.2105925393192762 0.9224205673397672
-0.3568987872219815 0.1921506429154991 0.9142670449686092
-0.3886955424898686 0.1737583919825158 0.9049335739041502
-0.4199339668429077 0.1551165506340194 0.8943003797868705
-0.451118623597158 0.1359080792041979 0.8821549764333463
-0.483362324293119 0.1153771139373121 0.8678839506659767
-0.5145043319592948 0.0948532403216891 0.8523254133711313
-0.5444245792044553 0.0744394073353983 0.8356002406903343
-0.5730259222739168 0.0542324596054941 0.8178408713811885
-0.6002342010990072 0.0343216438729167 0.7991875600288728
-0.6259980243059139 0.0147871653620242 0.7797844318733373
-0.6502878445721243 -0.0043008497628784 0.7597757347007063
-0.6730943917394406 -0.0228829407560756 0.739302482971524
-0.6944266240250949 -0.0409104772988234 0.7184996079427466
-0.7143093990487008 -0.0583454871346385 0.6974936381712308
-0.732781222037149 -0.0751604067273174 0.6764006682610383
-0.750564318849593 -0.0919862253779892 0.6544636126883557
-0.7572546760309765 -0.0590446512229059 0.6505452973088408
-0.7548853060783574 0.0949156769730927 0.6490523780153089
-0.7523608761866356 0.0591784931954861 0.6561876602457861
-0.7488809341103891 0.024379473123405 0.6623559836016405
-0.7445016773249027 -0.0094405933930294 0.6676538387701729
-0.7392188368448617 -0.0423619326581314 0.6722316670974503
-0.7335284160521851 0.1913162414228516 0.6522764781190792
-0.7339113713624396 0.1532803487772997 0.6618244393730768
-0.7331397920871474 0.1159065712409051 0.6702281310328579
[...]
CELL_DATA 3056
SCALARS gaussian_curvature float 1
LOOKUP_TABLE default
1.0479783160942784
1.0479783160940221
1.0479783160945184
1.0479783160942397
1.0479783160939993
0.9994188184906516
0.9994188184904073
0.9996476634471403
0.9996476634471523
0.9994188184905869
0.999647663447383
0.9996476634470782
0.9994188184903047
0.9996476634473299
0.9996476634473261
0.9994188184900898
0.9996476634467923
0.9996476634468179
0.9996476634471526
0.9996476634468578
1.0479783160945968
1.0479783160943215
1.0479783160940381
1.047978316093766
1.0479783160943148
0.9994188184906367
0.9994188184900795
0.9996476634471048
0.9996476634473865
0.9994188184900745
0.9994188184900864
0.9996476634473932
0.9996476634471094
0.9994188184900686
0.9996476634468174
0.9996476634465348
0.9996476634468245
0.9996476634465385
0.9996476634459885
0.9996476634465509
-0.8509543953631568
-18.785002470075863
-1.3990818189565564
1.00033642938243
-16.93371164533055
1.0000463124345265
1.0000463124342547
0.7320761287062387
1.0003587659619786
1.280225888879187
-37.17337222762778
1.000391041401069
1.0003910414007975
1.0000954670022253
1.0000954670022255
1.0006913713552636
1.00036897896827
1.0006913713552628
-19.239313939908513
1.0003875560453537
1.0003875560453659
1.0008986036868255
1.0009068445978917
1.0008986036868366
1.0009068445981613
1.0003875560453435
1.0003875560453679
1.0003875560450326
1.000095467002492
1.0000954670024862
1.0008986036867908
1.0003875560455795
1.0003910414010821
1.000391041401341
1.0000463124345396
1.0000463124348042
1.0006913713549999
1.0006913713552568
1.00090684459816
1.0003364293824277
1.0003364293824293
1.000299734145743
1.0002997341454793
1.000358765961976
1.0003689789680053
1.0003587659619737
1.0003689789682644
1.0003311199122096
1.0003311199119436
1.000404198421513
1.0004041984215106
1.000246460755956
1.0002374115690373
1.0002464607554364
1.0002374115685166
1.000328884953097
1.0003288849528533
1.0004506878164068
1.0004506878161656
1.00019767127939
1.0001883255915527
1.0001976712791438
1.000188325591294
1.000326962326234
1.0003269623257594
1.0004730513264901
1.0004730513262567
1.0001743799494471
1.000166891765913
1.0001743799487401
1.0001668917654372
1.0003257896320876
1.000325789631404
1.0004853720675988
1.000485372067149
1.000162910077865
1.0001575893954806
1.0001629100774023
1.000157589395236
1.000325071821955
1.0003250718210683
1.0004934161008354
1.000493416100399
1.0001567246591283
1.0001541453505496
1.0001567246582388
1.0001541453503175
1.0003236803692086
1.0003236803689806
1.0004998548468707
1.000499854847079
1.000151888566597
1.0001532771353971
1.0001518885663658
1.0001532771349548
1.0003183953943697
1.0003183953949857
1.0005144131024077
1.0005144131028154
1.0001441029531783
1.0001537706030674
1.0001441029535851
1.0001537706030639
1.000312386327206
1.0003123863276047
1.0001633029385184
1.0001633029385095
1.2611598943697448
1.2611876287037551
1.000125377355255
1.0001531116890652
1.2457365069620452
1.0000680656661127
1.2455324458654455
0.9998640045695222
0.732464104793918
0.74773840881293
1.0002338023625061
1.000142030662553
-13.185065826324513
1.0000296873913985
-13.431018455996716
0.9997454990151186
1.0003690677430657
1.0003691216175827
-13.891968626628433
0.9999817878308309
0.7708879515701248
1.2320744110175548
1.0002878544625045
1.0003909459984595
1.232358599393624
0.7339141333708091
1.0003690677428494
1.0003909459984537
0.7610977901225199
1.2595423100200587
1.0003691216175734
1.2594505383205172
0.7321475412827766
-9.381377889180119
-14.62376156159273
5.078856104411345
1.0000680656659013
-4.242315606746701
1.0001633029383064
1.0001633029383146
15.460437378513049
24.31867309374343
1.0002338023620876
1.0003691216177715
14.034187840774766
1.0003123863272014
1.0003123863272116
1.000514413102403
1.0005144131024046
1.0001253773550571
1.0001420306623485
1.00012537735507
19.27647974148764
1.000318395394778
1.0003183953947787
1.0004998548468693
1.0004998548468684
1.000144102953591
1.0001531116890714
1.000144102953592
1.0001531116890765
1.0003236803692004
1.0003236803694162
1.0004934161003936
1.0004934161006105
1.0001518885667977
1.0001537706032793
1.0001518885670138
1.000153770603279
1.0003250718212873
1.0003250718212806
1.0004853720676066
1.000485372067383
1.0001567246588996
1.000153277135603
1.0001567246586773
1.0001532771356045
1.0003257896325481
1.000325789632092
1.0004730513271738
1.0004730513269413
1.0001629100778675
1.0001541453505383
1.0001629100774105
1.0001541453500982
1.0003269623264577
1.000326962326224
1.0004506878168904
1.0004506878168893
1.0001743799494422
1.0001575893954775
1.0001743799492078
1.0001575893952435
1.0003288849535805
1.0003288849538274
1.0004041984222525
1.0004041984225005
1.0001976712796226
1.0001668917659168
1.000197671279628
1.0001668917656734
1.0003311199124572
1.0003311199121843
1.0002997341459894
1.0002997341454685
1.0002464607556985
1.000188325591536
1.0002464607559234
1.0001883255920403
1.0003364293824175
1.0003364293821622
1.000046312434252
1.0000463124345176
1.000358765961969
1.000237411568782
1.0003587659617104
1.0002374115687556
1.0003910414007948
1.0003910414010582
1.0000954670022104
1.0000954670022084
1.0006913713552645
1.0003689789682733
1.0006913713555243
1.0003689789685317
1.0003875560450541
1.0003875560453337
1.0008986036865333
1.0009068445981595
1.0008986036868102
1.0009068445981508
1.000387556044493
1.0003875560450506
1.0003875560452926
1.0000954670021902
1.0000954670024733
1.000898603686501
1.0003875560450224
1.0003910414007753
1.00039104140106
1.0000463124342374
1.000046312434239
1.0006913713552483
1.0009068445978717
1.0006913713555352
1.0003364293826793
1.0003364293826817
1.0002997341459825
1.0002997341459836
1.0003587659622282
1.000368978968259
1.0003587659622317
1.0003689789682642
1.0003311199121994
1.0003311199126994
1.0004041984219971
1.0004041984224963
1.0002464607554407
1.0002374115687729
1.0002464607559411
1.000237411568775
1.0003288849530865
1.0003288849538265
1.000450687816648
1.0004506878168888
1.0001976712786484
1.0001883255908006
1.000197671279869
1.0001883255917807
1.000326962325983
1.0003269623262252
1.0004730513267095
1.0004730513267108
1.000174379948966
1.000166891765193
1.0001743799494396
1.0001668917661457
1.0003257896320825
1.0003257896320854
1.0004853720673725
1.000485372067374
1.0001629100776308
1.000157589395241
1.0001629100774114
1.0001575893952512
1.000325071821499
1.0003250718212855
1.0004934161006056
1.0004934161003904
1.000156724658896
1.0001541453503178
1.0001567246584666
1.0001541453498815
1.0003236803692004
1.0003236803691975
1.0004998548466522
1.0004998548468647
1.0001518885667975
1.0001532771355999
1.0001518885667957
1.0001532771351698
1.0003183953945611
1.0003183953945687
1.0005144131021908
1.0005144131019859
1.0001441029531695
1.0001537706028578
1.000144102953178
1.000153770603072
1.0003123863271957
1.0003123863269934
1.000163302938303
1.0001633029383055
1.0001253773552614
1.000153111688865
1.0001253773550605
1.0001531116886622
1.0000680656661207
1.0000680656663297
0.99986400456974
0.9998640045699465
1.000233802362317
1.0001420306625648
1.0002338023625275
1.0001420306625706
1.0000296873912105
1.0000296873914163
0.9997454990153352
0.9997454990153344
1.000369067742878
1.0003691216176038
1.000369067742877
1.000369121617605
0.9999817878308364
0.9999817878310435
0.9997454990151116
0.9997454990153194
1.0002878544620952
1.0003909459982614
1.0002878544625124
1.000390945998264
1.0000296873909786
1.000029687391184
0.9998640045697154
0.9998640045697131
1.0003690677428545
1.000390945998246
1.0003690677426436
1.0003909459982478
1.0000680656659129
1.0000680656663132
1.0001633029381094
1.000163302938512
1.0002338023616997
1.000369121617378
1.0002338023623005
1.00036912161716
1.0003123863268046
1.0003123863267929
1.0005144131026251
1.000514413102211
1.0001253773548644
1.000142030661956
1.0001253773546481
1.0001420306623543
1.0003183953947818
1.0003183953945771
1.000499854846656
1.0004998548468655
1.000144102952966
1.0001531116888693
1.0001441029529659
1.0001531116884546
1.0003236803685647
1.000323680368774
1.0004934161004029
1.0004934161004027
1.0001518885663758
1.0001537706026515
1.0001518885665837
1.000153770603064
1.0003250718212888
1.0003250718212877
1.0004853720673794
1.0004853720673788
1.0001567246586776
1.000153277135603
1.00015672465846
1.0001532771353847
1.0003257896320978
1.0003257896318647
1.000473051326947
1.0004730513267146
1.0001629100776448
1.000154145350315
1.0001629100771883
1.0001541453498746
1.000326962326461
1.0003269623257478
1.000450687816649
1.0004506878161685
1.000174379949443
1.0001575893954762
1.0001743799489606
1.000157589395251
1.0003288849533385
1.0003288849528569
1.0004041984220096
1.0004041984220087
1.0001976712796248
1.0001668917659172
1.0001976712786633
1.0001668917651878
1.0003311199121983
1.000331119912456
1.000299734145465
1.0002997341457234
1.0002464607559374
1.0001883255920347
1.0002464607561945
1.0001883255915538
1.0003364293821633
1.0003364293826895
1.0000463124342596
1.0000463124345276
1.000358765961717
1.0002374115687578
1.0003587659622424
1.0002374115690147
1.0003910414010686
1.0003910414010535
1.0000954670024955
1.0000954670022126
1.0006913713552632
1.0003689789680081
1.000691371355519
1.0003689789685457
1.0003875560458995
1.0003875560453326
1.0008986036870968
1.0009068445978875
1.0008986036868093
1.0009068445981546
1.0003875560450552
1.0003875560453288
1.0003875560444844
1.0000954670016466
1.0000954670022084
1.0008986036859644
1.0003875560444846
1.0003910414007833
1.000391041401076
1.0000463124342567
1.0000463124339876
1.000691371354978
1.0009068445973215
1.0006913713555419
1.0003364293824197
1.0003364293821506
1.0002997341457223
1.0002997341457225
1.000358765962235
1.000368978968267
1.0003587659619657
1.0003689789682688
1.0003311199124547
1.0003311199124547
1.0004041984222518
1.0004041984222514
1.000246460755945
1.000237411569028
1.0002464607556947
1.0002374115687778
1.0003288849533387
1.00032888495334
1.0004506878164112
1.000450687816413
1.000197671279139
1.0001883255915425
1.0001976712791407
1.0001883255912922
1.0003269623257447
1.0003269623259794
1.0004730513264708
1.0004730513267035
1.0001743799489646
1.0001668917654316
1.0001743799492016
1.0001668917654358
1.0003257896320819
1.0003257896320914
1.000485372067594
1.0004853720673708
1.000162910077853
1.0001575893954617
1.0001629100778644
1.0001575893956989
1.0003250718217203
1.000325071821282
1.000493416100826
1.000493416100611
1.0001567246588934
1.0001541453505385
1.0001567246586736
1.0001541453505354
1.0003236803694087
1.0003236803689846
1.000499854847071
1.0004998548468618
1.000151888567005
1.0001532771355957
1.000151888566373
1.0001532771353911
1.0003183953949792
1.0003183953945645
1.0005144131021926
1.000514413101987
1.0001441029535827
1.0001537706032708
1.0001441029529647
1.0001537706026506
1.0003123863265837
1.0003123863269852
1.0001633029374881
1.0001633029380952
1.000125377354855
1.0001531116890674
1.0001253773552592
1.0001531116886615
1.0000680656655137
1.0000680656661198
0.9998640045693277
0.9998640045693268
1.0002338023619155
1.0001420306621616
1.0002338023625224
1.0001420306627722
1.0000296873912122
1.0000296873910008
0.9997454990151262
0.9997454990149157
1.0003690677426778
1.000369121617195
1.0003690677426724
1.000369121617401
0.9999817878308361
0.9999817878306252
0.9997454990151052
0.9997454990151049
1.000287854462517
1.0003909459982725
1.0002878544623046
1.0003909459982667
1.000029687391382
1.000029687391178
0.9998640045695114
0.9998640045693081
1.000369067742842
1.0003909459982459
1.000369067742641
1.0003909459982472
1.0000680656657048
1.000068065665301
1.000163302937907
1.0001633029377062
1.0002338023622983
1.000369121617565
1.0002338023618969
1.000369121617367
1.0003123863270025
1.0003123863265968
1.0005144131022032
1.0005144131019983
1.243742391980621
1.2437590452881189
1.0001253773544507
1.000142030662156
-16.295846574522166
1.0003183953939478
-13.150783248938536
4.145381720977783
-16.771379667520737
0.7684113257572505
1.0001441029527582
1.0001531116886622
20.210502628442747
17.065448970508797
1.0001537706026444
35.20639252402634
1.000387556045056
1.000095467002477
1.000095467002485
1.0008986036868233
1.0003875560453532
1.0003910414013348
1.0003910414013473
1.0000463124347991
1.0000463124348036
1.0006913713552503
1.0006913713552676
1.0009068445981728
1.000336429382425
1.000336429382433
1.00029973414573
1.0002997341457336
1.0003587659619706
1.0003689789682602
1.0003587659619824
1.000368978968273
1.0003311199121943
1.0003311199121996
1.0004041984222518
1.0004041984222536
1.0002464607554333
1.0002374115685146
1.0002464607559403
1.0002374115690236
1.000328884953578
1.0003288849533407
1.0004506878168888
1.0004506878166497
1.0001976712796186
1.0001883255915311
1.0001976712791427
1.000188325591796
1.0003269623264541
1.0003269623259845
1.0004730513267113
1.0004730513264803
1.0001743799496683
1.0001668917661433
1.0001743799489666
1.000166891765434
1.000325789632085
1.0003257896316324
1.000485372067145
1.000485372066923
1.0001629100780862
1.0001575893959265
1.0001629100774108
1.0001575893952412
1.0003250718215004
1.000325071821064
1.000493416100606
1.0004934161003916
1.0001567246588954
1.0001541453505411
1.0001567246584602
1.0001541453500977
1.000323680369198
1.0003236803689854
1.0004998548470703
1.0004998548470723
1.0001518885667946
1.0001532771355977
1.0001518885663732
1.0001532771351753
1.0003183953949777
1.0003183953947756
1.0005144131028112
1.0005144131026074
1.0001441029531657
1.000153770602855
1.0001441029529652
1.0001537706026493
1.0003123863273937
1.0003123863269934
1.000163302938501
1.0001633029383046
1.0001253773552563
1.000153111688862
1.0001253773552636
1.0001531116890672
1.0000680656663175
1.000068065665923
0.9998640045699373
0.9998640045697393
1.0002338023623116
1.0001420306623576
1.0002338023621253
1.000142030662777
1.0000296873918233
1.0000296873914245
0.9997454990155384
0.9997454990153376
1.0003690677430774
1.0003691216171855
1.0003690677428914
1.0003691216174087
0.9999817878312476
0.9999817878310531
0.9997454990155197
0.9997454990155259
1.0002878544625033
1.0003909459980482
1.0002878544627345
1.0003909459984859
1.0000296873915884
1.000029687391598
0.9998640045697129
0.9998640045697165
1.0003690677430508
1.0003909459982379
1.0003690677426471
1.0003909459982563
1.0000680656659018
1.0000680656659076
1.0001633029383097
1.0001633029383121
1.000233802362294
1.000369121617568
1.000233802362302
1.00036912161716
1.000312386327204
1.0003123863274133
1.0005144131026236
1.0005144131028298
1.0001253773550571
1.0001420306625548
1.0001253773552663
1.00014203066256
1.0003183953945733
1.000318395394993
1.0004998548468715
1.000499854847085
1.000144102952756
1.000153111688659
1.0001441029531775
1.0001531116888673
1.0003236803687794
1.0003236803689948
1.0004934161006196
1.0004934161006216
1.0001518885661613
1.0001537706024364
1.0001518885665899
1.0001537706028645
1.0003250718212884
1.0003250718210668
1.00048537206738
1.0004853720671563
1.0001567246584604
1.0001532771351735
1.000156724658023
1.000153277135173
1.0003257896320974
1.0003257896314115
1.000473051327186
1.0004730513267237
1.0001629100776437
1.0001541453500984
1.0001629100771807
1.000154145349882
1.0003269623266984
1.0003269623262367
1.0004506878168875
1.0004506878168882
1.0001743799496716
1.0001575893957055
1.0001743799489802
1.0001575893952366
1.0003288849535876
1.000328884953338
1.000404198422261
1.000404198422011
1.0001976712798726
1.000166891766146
1.0001976712793845
1.0001668917656779
1.0003311199127096
1.0003311199122003
1.0002997341457283
1.000299734145469
1.000246460756198
1.0001883255920347
1.2105822720616914
1.2105241368975486
1.0003364293824246
1.1992050993836598
1.0000463124342611
1.1989149824357557
1.0003587659619764
1.0002374115687687
0.7873975726610336
0.7987433595723339
1.0003910414013484
0.8063186206865605
1.1942357544305118
0.8012946637142291
1.0006913713555419
1.0003689789680064
1.1945278434733588
0.6070698738816209
1.0008986036868182
1.0009068445981646
1.78344526027095
2.3703921822206535
1.0003875560447835
1.9833304723005107
-19.19728152699749
-1.0106907143655812
16.3326736350847
-17.1862596927192
1.0003311199124532
1.0002997341459947
1.0002997341457374
-17.751509794771913
18.343637334198593
35.924571360714644
1.0002464607559443
1.000188325591801
1.000336429382961
1.0003364293824346
1.000046312434523
1.0000463124342538
1.2906273535052841
0.7253405562156091
1.000358765961722
1.000237411568516
1.000391041401065
1.0003910414010764
1.0000954670019522
1.0000954670022324
1.0006913713558057
1.2906375665115868
1.0006913713555468
1.0003689789680117
-14.04381130964411
0.7659449107631937
-13.55427163701895
1.2554845833883506
1.0004998548466661
1.000499854846663
-13.302622553447234
1.2553102909469527
18.140109070739612
1.0003236803692142
1.0003236803689919
1.0004934161008419
1.000493416100623
1.000151888566808
1.251977146615976
1.0001518885665843
1.0001537706028574
1.0003250718215115
1.0003250718215142
1.000485372067154
1.0004853720673754
1.0001567246586829
1.000153277135607
1.0001567246586842
1.000153277135385
1.00032578963164
1.000325789632092
1.0004730513264888
1.0004730513267193
1.0001629100774163
1.0001541453501015
1.0001629100776448
1.0001541453500982
1.0003269623262303
1.0003269623262219
1.000450687816896
1.000450687816657
1.0001743799494416
1.0001575893954764
1.0001743799492033
1.0001575893952535
1.0003288849535836
1.0003288849533463
1.0004041984225123
1.0004041984225138
1.0001976712791423
1.000166891765666
1.0001976712791458
1.000166891765438
1.000331119912453
1.0003311199127163
1.0002997341459867
1.0002997341462485
1.000246460755936
1.0001883255915542
1.000246460755951
1.000188325591548
1.000336429382696
1.0003364293826895
1.000046312434792
1.0000463124345242
1.000358765962243
1.0002374115690171
1.0003587659624993
1.0002374115692927
1.0003910414013315
1.0003910414007835
1.0000954670019262
1.0000954670016462
1.0006913713557968
1.0003689789688046
1.000691371354979
1.0003689789685293
1.0000954670016537
1.0000954670016535
1.0003910414008024
1.0003910414010706
1.0000463124339976
1.0000463124342658
1.000691371355268
1.0006913713552632
1.000336429381901
1.000336429382428
1.0002997341454738
1.0002997341457323
1.0003587659622355
1.0003689789687975
1.000358765962239
1.0003689789682695
1.0003311199122045
1.000331119912462
1.0004041984220144
1.0004041984220138
1.000246460755693
1.0002374115692967
1.0002464607559491
1.0002374115690305
1.0003288849533405
1.0003288849531002
1.000450687816651
1.0004506878164117
1.0001976712793865
1.000188325591549
1.0001976712791456
1.0001883255915462
1.0003269623264626
1.0003269623262223
1.0004730513264906
1.00047305132649
1.0001743799494442
1.0001668917656787
1.0001743799494347
1.0001668917656694
1.0003257896314164
1.0003257896316387
1.0004853720664755
1.0004853720666982
1.0001629100776455
1.0001575893957013
1.0001629100778666
1.0001575893959302
1.0003250718208427
1.0003250718210657
1.0004934161006118
1.000493416100612
1.000156724658237
1.0001541453500986
1.000156724658459
1.0001541453503195
1.0003236803689943
1.0003236803694167
1.0004998548466648
1.000499854847087
1.0001518885663754
1.000153277135387
1.0001518885663752
1.000153277134964
1.000318395394152
1.0003183953945718
1.0005144131024029
1.0005144131024009
1.0001441029529632
1.0001537706028572
1.0001441029533822
1.0001537706028558
1.0003123863272059
1.0003123863272
1.0001633029383137
1.0001633029383097
1.000125377355062
1.0001531116890705
1.000125377354851
1.0001531116888622
1.0000680656659218
1.000068065665708
0.999864004569526
0.9998640045693159
1.0002338023621187
1.0001420306623667
1.0002338023621022
1.000142030662355
1.0000296873912022
1.000029687391193
0.9997454990147085
0.9997454990149093
1.0003690677426689
1.0003691216171895
1.0003690677428607
1.000369121617378
0.9999817878304305
0.9999817878306265
0.999745499014915
0.9997454990149104
1.0002878544623193
1.0003909459980642
1.0002878544623002
1.0003909459982505
1.000029687391408
1.0000296873913959
0.9998640045697329
0.9998640045697255
1.0003690677428685
1.0003909459982643
1.0003690677430639
1.000390945998252
1.000068065666126
1.0000680656661083