# vtk DataFile Version 1.0
Tissue data
ASCII

DATASET POLYDATA
POINTS 1593 float
0.078185 -0.550694 0.785893
0.0577715 0.450587 0.883409
0.19516 -0.66928 0.5961839999999999
0.180955 -0.653058 0.629148
0.166551 -0.636085 0.660361
0.150281 -0.619191 0.689292
0.134447 -0.602636 0.715554
0.116001 -0.586164 0.739619
0.097893 -0.568898 0.763081
0.111199 -0.543239 0.789591
0.141022 -0.533487 0.794233
0.170383 -0.523863 0.796933
0.200327 -0.513429 0.798345
0.230837 -0.502023 0.7984749999999999
0.261839 -0.489542 0.79724
0.293232 -0.475939 0.79453
0.324885 -0.461196 0.790229
0.356652 -0.445326 0.78423
0.388371 -0.428364 0.776443
0.419867 -0.410368 0.766803
0.45096 -0.391415 0.755273
0.481466 -0.371595 0.741851
0.509486 -0.35219 0.727533
0.536108 -0.332574 0.711966
0.561768 -0.312479 0.694933
0.586826 -0.29159 0.676154
0.612108 -0.269166 0.654736
0.635842 -0.24654 0.632118
0.658047 -0.223914 0.608182
0.678495 -0.2013 0.583766
-0.211583 0.666385 0.585347
-0.193424 0.650625 0.620872
-0.174579 0.633712 0.654791
-0.153408 0.616318 0.686698
-0.132298 0.598785 0.715942
-0.108011 0.581148 0.742458
-0.0844843 0.562116 0.768203
-0.0588327 0.544306 0.791088
-0.0346053 0.526189 0.812093
-0.0107926 0.508084 0.831434
0.0120989 0.48981 0.849405
0.0349207 0.470724 0.866659
0.0787943 -0.528021 0.8098299999999999
0.0787053 -0.504763 0.833253
0.0785339 -0.480764 0.856158
0.0783209 -0.455223 0.879192
0.0780336 -0.428119 0.9022
0.0776834 -0.399427 0.925006
0.0773041 -0.369114 0.947421
0.0769157 -0.337135 0.969237
0.0765017 -0.303451 0.990209
0.0760061 -0.268049 1.01005
0.0753484 -0.23095 1.0284
0.0744361 -0.192217 1.0449
0.0731595 -0.151969 1.05912
0.0715183 -0.112662 1.07007
0.0693512 -0.0730797 1.07802
0.0666556 -0.0326869 1.0828
0.0645934 0.00912911 1.08404
0.0659235 0.0528411 1.08073
0.0670784 0.0955339 1.07386
0.0675883 0.136845 1.06383
0.0675132 0.176531 1.05115
0.0664421 0.214196 1.03651
0.0648579 0.249911 1.02023
0.0638659 0.283411 1.00262
0.0628641 0.315046 0.984061
0.0618544 0.344909 0.964828
0.0608689 0.373052 0.945178
0.0599062 0.399521 0.925349
0.058871 0.425248 0.904828
0.0927721 0.441339 0.887632
0.125123 0.432103 0.891161
0.155158 0.42257 0.89296
0.18606 0.412293 0.893403
0.217635 0.401152 0.892232
0.249739 0.38912 0.889294
0.28222 0.37618 0.8844339999999999
0.314925 0.362343 0.877522
0.34769 0.347638 0.868458
0.380342 0.332106 0.857182
0.4127 0.315803 0.843674
0.444572 0.298797 0.827961
0.47577 0.281168 0.810111
0.504354 0.264024 0.791467
0.531456 0.246817 0.771565
0.557537 0.22931 0.750163
0.582999 0.211243 0.726911
0.608664 0.191957 0.700828
0.632814 0.172622 0.67353
0.655388 0.153354 0.6451749999999999
0.676301 0.134279 0.615864
0.695458 0.1146 0.586562
0.0427937 -0.544423 0.795907
0.00801481 -0.537448 0.80452
-0.0266041 -0.529732 0.812014
-0.062124 -0.520781 0.818866
-0.0983986 -0.510014 0.82535
-0.133481 -0.49871 0.8312229999999999
-0.166571 -0.486566 0.835145
-0.199992 -0.473303 0.837792
-0.233568 -0.458923 0.8388289999999999
-0.267277 -0.443504 0.838056
-0.300993 -0.427062 0.835341
-0.334543 -0.409633 0.830606
-0.367739 -0.39128 0.823802
-0.398508 -0.373204 0.815488
-0.42801 -0.3548 0.80557
-0.456719 -0.335817 0.793949
-0.485063 -0.315982 0.780406
-0.513989 -0.294593 0.764278
-0.541591 -0.272963 0.746538
-0.567762 -0.251224 0.727363
-0.592418 -0.2295 0.706946
-0.615508 -0.20791 0.685473
-0.636994 -0.186562 0.663145
-0.656902 -0.165568 0.640091
-0.675241 -0.145097 0.616339
-0.691876 -0.12468 0.592827
-0.102156 -0.683662 0.605538
-0.0867154 -0.664518 0.638875
-0.0629392 -0.648301 0.666554
-0.0387777 -0.632515 0.690573
-0.0142264 -0.617026 0.712031
0.00950351 -0.601375 0.731789
0.0323172 -0.585453 0.750247
0.0548347 -0.568702 0.76824
0.247469 0.658092 0.579237
0.233346 0.641058 0.616344
0.218199 0.623112 0.651843
0.202313 0.604461 0.685501
0.185378 0.585514 0.717003
0.168178 0.566431 0.746194
0.150081 0.547384 0.773223
0.133102 0.528433 0.798101
0.114303 0.509359 0.821145
0.096709 0.490054 0.842905
0.0782306 0.470028 0.863752
0.0233352 0.443183 0.8916189999999999
-0.0103358 0.43478 0.89905
-0.0438116 0.425193 0.905826
-0.0784818 0.414098 0.9119389999999999
-0.112208 0.402158 0.917383
-0.14474 0.387264 0.923036
-0.177834 0.372441 0.926111
-0.211269 0.356969 0.927052
-0.244953 0.340733 0.925794
-0.278744 0.323725 0.922214
-0.312481 0.30598 0.916212
-0.345982 0.287561 0.907733
-0.379054 0.268547 0.896772
-0.409632 0.250117 0.884232
-0.438857 0.231657 0.869932
-0.467197 0.212906 0.853757
-0.495081 0.193592 0.835471
-0.523438 0.173035 0.814285
-0.55039 0.152482 0.791531
-0.575845 0.132046 0.767436
-0.599741 0.111831 0.742224
-0.622037 0.0919414 0.71611
-0.642711 0.0724687 0.689304
-0.661739 0.0534662 0.66204
-0.679165 0.0349726 0.63446
-0.695041 0.0170893 0.606658
-0.709363 -0.000160856 0.579044
-0.700241 0.0793831 0.589095
-0.698075 0.0481739 0.598362
-0.68082 0.200832 0.580107
-0.68262 0.166857 0.593745
-0.683406 0.13309 0.60582
-0.68317 0.0996582 0.61632
-0.681619 0.0670434 0.626101
-0.655887 0.258434 0.589789
-0.659861 0.223241 0.6054579999999999
-0.662429 0.188298 0.620003
-0.663926 0.153738 0.632674
-0.664341 0.119694 0.64373
-0.663578 0.086358 0.653486
-0.626007 0.317482 0.595251
-0.6323 0.281667 0.613331
-0.637039 0.245824 0.630317
-0.640504 0.210259 0.64537
-0.642726 0.17502 0.658756
-0.643831 0.140272 0.6704209999999999
-0.64381 0.106124 0.680558
-0.591208 0.376707 0.595901
-0.599889 0.340916 0.61652
-0.606901 0.30475 0.636171
-0.612551 0.268562 0.653839
-0.61681 0.232469 0.669799
-0.619836 0.196666 0.68392
-0.621677 0.161272 0.696284
-0.622394 0.126378 0.706975
-0.552131 0.434379 0.591476
-0.562913 0.399767 0.6143649999999999
-0.572177 0.363931 0.63675
-0.580025 0.327702 0.657249
-0.586416 0.291242 0.676046
-0.591492 0.254799 0.6929379999999999
-0.595292 0.218529 0.707963
-0.597892 0.182577 0.721132
-0.599351 0.147017 0.732529
-0.51211 0.486078 0.5826979999999999
-0.523664 0.454491 0.607221
-0.533801 0.421919 0.631142
-0.543474 0.386468 0.654676
-0.551836 0.350267 0.676573
-0.558909 0.313743 0.696524
-0.564687 0.277087 0.714541
-0.569219 0.24049 0.730595
-0.572543 0.204086 0.744729
-0.574723 0.167942 0.756997
-0.482203 0.505069 0.596092
-0.494046 0.473894 0.621894
-0.504809 0.441656 0.646456
-0.514312 0.407881 0.670464
-0.522865 0.372132 0.693744
-0.530348 0.335791 0.715024
-0.536678 0.299146 0.73427
-0.541819 0.2624 0.751507
-0.545777 0.225694 0.766773
-0.548594 0.189065 0.780123
-0.436299 0.554249 0.580552
-0.451073 0.5238 0.607681
-0.46351 0.492816 0.634543
-0.474808 0.460772 0.660131
-0.484645 0.427398 0.685165
-0.493379 0.392614 0.70918
-0.50114 0.356904 0.731491
-0.507853 0.320623 0.7519
-0.513446 0.284034 0.770351
-0.517863 0.24728 0.78689
-0.521124 0.210325 0.80158
-0.402571 0.572042 0.590225
-0.417027 0.542237 0.619228
-0.430311 0.511268 0.6470319999999999
-0.442268 0.479119 0.673894
-0.453044 0.44588 0.699548
-0.462642 0.411649 0.723861
-0.471092 0.376588 0.746645
-0.478402 0.340916 0.767726
-0.484525 0.304852 0.787028
-0.489336 0.268524 0.8046409999999999
-0.492698 0.231674 0.820863
-0.368015 0.58878 0.598596
-0.38238 0.559589 0.6287739999999999
-0.395858 0.528963 0.657867
-0.408328 0.497084 0.685762
-0.419751 0.464061 0.712351
-0.430138 0.430067 0.737429
-0.439459 0.395289 0.760856
-0.447699 0.359933 0.782502
-0.454813 0.324233 0.802281
-0.460639 0.28845 0.820241
-0.46456 0.251192 0.8377479999999999
-0.316416 0.631669 0.574346
-0.332916 0.604275 0.605463
-0.347425 0.575641 0.636595
-0.361002 0.545574 0.66667
-0.373702 0.514198 0.695545
-0.385503 0.48163 0.723066
-0.396387 0.448014 0.749082
-0.406343 0.413527 0.773424
-0.415352 0.37836 0.795956
-0.423418 0.342711 0.816547
-0.43054 0.306784 0.835098
-0.435732 0.269911 0.852838
-0.281907 0.644375 0.5791149999999999
-0.297709 0.617966 0.61151
-0.312405 0.590154 0.6429549999999999
-0.325984 0.560861 0.673693
-0.33875 0.530194 0.703337
-0.350728 0.49827 0.731688
-0.36191 0.465223 0.758586
-0.372274 0.431207 0.783874
-0.38181 0.396388 0.807403
-0.390511 0.360921 0.82905
-0.398406 0.324911 0.8487169999999999
-0.405562 0.288208 0.866431
-0.246963 0.656065 0.582631
-0.262777 0.630281 0.61577
-0.277394 0.603184 0.647898
-0.29096 0.574743 0.679087
-0.303691 0.544918 0.709291
-0.315708 0.51379 0.738305
-0.327041 0.48147 0.765961
-0.33766 0.448097 0.792104
-0.347547 0.413815 0.816585
-0.356691 0.378759 0.8392769999999999
-0.365077 0.343015 0.860097
-0.372671 0.306488 0.879083
-0.228044 0.641193 0.61878
-0.242708 0.614815 0.651338
-0.256095 0.587218 0.6829459999999999
-0.268704 0.558304 0.713541
-0.28065 0.528083 0.74304
-0.292022 0.496616 0.771296
-0.302777 0.464026 0.798159
-0.312896 0.430439 0.82348
-0.322357 0.395976 0.847129
-0.331118 0.360728 0.869012
-0.339094 0.324672 0.889134
-0.208422 0.625012 0.653542
-0.221562 0.598302 0.685364
-0.233953 0.570333 0.716214
-0.245715 0.541096 0.746027
-0.257047 0.510578 0.774711
-0.267844 0.478886 0.802138
-0.278095 0.446126 0.828158
-0.287785 0.412396 0.852641
-0.296835 0.377798 0.87548
-0.305149 0.342359 0.8966379999999999
-0.187386 0.607996 0.6865519999999999
-0.199577 0.581016 0.717444
-0.211025 0.552824 0.747398
-0.222274 0.523317 0.776345
-0.233038 0.492614 0.8041699999999999
-0.243332 0.460795 0.830728
-0.253193 0.427911 0.855903
-0.262466 0.394078 0.879579
-0.271044 0.359362 0.901676
-0.165636 0.590377 0.7174
-0.176623 0.563321 0.7472759999999999
-0.187846 0.534846 0.77633
-0.198513 0.505177 0.8044129999999999
-0.208744 0.474412 0.831329
-0.218762 0.442471 0.857035
-0.228217 0.40949 0.881417
-0.236981 0.375581 0.904351
-0.142325 0.572659 0.745754
-0.153881 0.545247 0.774736
-0.164455 0.516576 0.803012
-0.174384 0.486951 0.8301499999999999
-0.184628 0.456067 0.856187
-0.194289 0.424007 0.881127
-0.203159 0.390965 0.904788
-0.120272 0.554458 0.772025
-0.131245 0.527033 0.800063
-0.140261 0.498431 0.827321
-0.15079 0.46861 0.853604
-0.16086 0.43764 0.878853
-0.1698 0.40552 0.903118
-0.0958732 0.536924 0.7950079999999999
-0.106628 0.509526 0.822219
-0.117395 0.480058 0.84964
-0.127838 0.450189 0.875135
[...]
CELL_DATA 3055
SCALARS gaussian_curvature float 1
LOOKUP_TABLE default
0.8638309638284484
0.9120461034025831
0.6913864055820422
0.7145066403809113
0.8842945803389931
1.2696791240648564
0.7844134407913537
1.2122941409063244
0.6788133180586868
0.9469660636310976
1.2572824286624311
1.1070139264750787
0.7571750219466802
0.8271444156759125
0.614233139192626
0.9013743283162141
0.8706695297920604
0.8450808962035123
0.7123208066629335
0.8570332172513839
0.9286460833771206
1.0885306921555438
0.9945463157206312
1.1264622932164312
0.7979466043864338
0.7552724219486746
0.8662896962590827
0.8622253987476498
0.9110927332156649
0.6862905468003783
0.9309954923798552
0.9813666510961827
0.8685776830125056
0.636707066839731
0.9042762780835567
1.0512925094571068
0.7934499934143753
0.8055841172961187
0.8761372987777125
0.9029114938375978
-1.534065012856767
-1.395101113281993
-20.124410836857965
1.2450524785940889
1.2461951931637385
1.2400885926221448
1.102267407617021
-17.351511954760667
1.0355688190440293
1.2310313221411826
1.2248127127876252
1.5637306623200786
0.8029811663121964
1.2329790828410732
1.3581668867185952
1.1029939362216776
1.3660029251043238
1.2363904795329248
1.2294788328610904
1.133990045574559
1.1956260356293245
1.117471605977391
1.1023817262390048
1.340923645777692
1.0628247771566597
1.2541646199944383
1.2430983469305763
1.2797372278628827
1.319181585584165
1.4031306284070033
1.2125025956734938
1.205920574455617
1.29339141034314
1.1706708087818387
1.245156840169575
0.6792902382439029
0.7069679213509465
1.2248993899127365
0.7788894029526221
1.3984501556761222
1.1470115205938383
0.9070997824776861
0.888389432438613
1.3734482112672848
0.7349310634553308
1.1632226785022899
1.104087605231126
1.0441305746534835
1.320614929099729
1.1445845291173327
1.2139896212494063
1.1077081102183208
1.2192004281509785
1.1728759476975352
1.2319115922032813
1.0705432340412473
1.1643579490738492
1.262007383044127
1.1823704724830129
1.2538260472314464
1.2205136171237754
1.2749644897016117
1.250079505762338
1.1822490571130022
1.135589656150451
1.2842778847363676
1.2332333699415694
1.2860710472332517
1.2683389625461245
1.2835994503682069
1.2661047195207704
1.2290083621074048
1.2161671939196002
1.2968884652063981
1.277265649085041
1.3041763319850421
1.302285600550812
1.2879491382223647
1.2764532858810576
1.2801951918010115
1.2670434974279308
1.303399839039103
1.310953794001363
1.3141815950771565
1.3236262814736464
1.284214242034369
1.2760514079962746
1.3195959352692588
1.3138572845346785
1.3022687086635232
1.3303805974541318
1.3140164033822577
1.3326836057763762
1.2776893630013095
1.2704166524102087
1.345313285514561
1.3472011108019715
1.2948773944003973
1.3393759099893865
1.3068298301387604
1.3326611433336315
1.2656160608855995
1.2601757242052465
1.3594897395671175
1.3677301234145365
1.2825332360084243
1.3376407308155107
1.2942178877524144
1.3234940693646298
1.2515030110541234
1.2465382716696616
1.361227460332215
1.3763617024280668
1.2679900067087821
1.327960884817858
1.2792950319832086
1.3099897284800692
1.2380111128656663
1.2332087689549978
1.3534790589085637
1.3725989729720403
1.2534508210709405
1.3130886289706167
1.2652869154732311
1.294230026876047
1.2252937658107808
1.2211590828799332
1.338462069568509
1.3608813431686675
1.2471435342284494
1.299916042909432
1.2618150143377005
1.2856444116158676
1.2199732244365893
1.2099595504212115
1.3221287723968222
1.3418161969613296
1.2470436252868078
1.2906383744103538
1.2545591026228053
1.2743244544681847
1.2228667246950748
1.2104678039541077
1.3090313765478636
1.3262501432407676
1.237886321591878
1.2718168516019357
1.2392205425216376
1.2533857206863162
1.225669827848866
1.2181657082880606
1.286823304957231
1.3077239099609899
1.2293424384210543
1.2437023653430834
1.2232079218870304
1.223402670644381
1.2180183167309653
1.2156799270885368
1.2540740846095355
1.2787638933080638
1.213116299276737
1.209331264860952
1.2062405860063723
1.2022608028332369
1.4086215002946794
1.407389001214884
1.2177901095099222
1.2422332345598035
1.391188126042319
1.190934356040261
1.3858102846205398
1.189536297791617
0.7019250362044194
0.7124826971864151
1.1894925561486795
1.2092778475906256
0.7461633285356399
1.1773488200642224
0.7290993331966187
1.3565588115541236
1.1726319747064387
1.1833776525422524
1.337664749256668
0.6614401665112188
1.1521043163408557
1.1662815332805279
11.557663591776352
12.22708383701068
1.1452999788297333
25.12924697865955
-3.083950356507247
-12.531876858662027
16.66705763955955
1.2008798387582147
-8.287742878186563
1.1766090629684967
1.1359128481784988
20.9398673347203
33.962039765468056
1.197351499007948
1.1853309989032366
-11.507001208828237
1.168836647156386
1.4165181646330154
1.0581815493637345
1.3465592816303618
1.192078949783926
1.19632302584577
1.2593823176022747
-2.2404813294939148
1.0707546687182412
1.180385636014928
1.2810217915281714
1.102275026558231
1.1788499085204034
1.1895190917934366
1.2902499713224715
1.2992877699071643
1.306273067644283
1.176155862415069
1.1569677319483351
1.2055972916890618
1.0918834873180523
1.1747274510041028
0.6873246331752517
0.723308132625957
1.117832457794043
0.7446090392961686
0.9591141965663175
0.5372612183277163
1.2381503659610238
1.0628960597890849
0.8347196636055421
0.8068766867586178
0.9761578480551782
0.5959120687245145
0.7039321675336028
0.7455393664415402
1.3757355882322895
1.4790098449104092
0.6872147504177715
0.7186745243303467
0.6930580146804581
0.8526687881843349
0.7061394151493645
0.8241429897453039
0.7207579004296282
1.1312097934598841
0.8282484812827187
0.8124217412331809
0.7115482633399242
0.8023374141246618
0.8288056308213363
0.8015912070101348
0.5825302376185444
0.6048212751771549
0.7883895827880222
0.785774851507048
0.8355821327631112
0.7958366221593669
0.8275268146393373
0.8149957278467945
0.8883566915923287
0.7525621639291741
0.8491656699941723
0.8409724235083005
0.8433639527633727
0.879700200438845
0.8394703799756502
0.8764078006808321
0.7358774638197668
0.7245020390625218
0.8681794284785571
0.8054475680622873
0.7505005548925501
0.6203716825939285
0.8015443803354247
0.856552015677241
0.833779107822697
0.7638461154865721
1.1367611055135398
0.6362231468743558
0.8279654391598272
0.8711468431499674
0.8337238710420147
1.3235442742695678
0.7911949410906322
1.1806350522763052
0.6651546878896044
0.8628525067898059
0.9075456733401028
0.8598746067872216
1.3742847125882522
1.2083982682278025
0.8331188791264955
1.2364669103765311
0.7088409419399232
0.9144911542897572
0.9514238418173623
0.8998103828299417
1.4391208833741886
1.2591561400994107
0.8896001046279547
1.3110959478170705
0.7688765442771132
0.984722175116395
1.0101602636622615
0.9477060636650969
1.524263978600659
1.3303131580710035
0.9654112650441486
1.409046190188952
0.8499070389520623
1.077696333257584
1.088481659871671
1.0125070981389424
1.6330804671267207
1.4219244828377522
1.0647703440456247
1.5330991689221394
0.9541194280709991
1.1946589586419925
1.1922526799806843
1.1004597697146443
1.769062083128639
1.537693524401852
1.1929142289392776
1.6856695165541524
1.0940169042392214
1.346232661283103
1.3295964007625423
1.2182839358293234
1.935553330520627
1.6805056868149664
1.3580597751474706
1.873561504486466
1.258953770439069
1.5222397427341825
1.4974325622731266
1.370071863188142
2.127651740430831
1.8502067111939429
1.5488509368376449
2.08279874120684
1.4658874793428756
1.736549311416957
1.7003687822656663
1.5498444029927465
2.3662646085163788
2.059795845988087
1.7745026655900307
2.338112112102816
1.7095515564539125
2.002499170892617
1.932308704006571
1.7752113631874378
2.617019646265484
2.2989227128891634
2.042747307995261
2.6240734389155507
2.0204671193871877
2.308845635868773
2.178677930977466
2.003288217852658
2.9069720248122715
2.564305290952005
2.3587198156952627
2.981945924558284
2.3328018205267016
2.667649412908138
2.466672905018939
2.264350831693069
3.253126353359277
2.8629246505664865
2.615981880861752
3.3028381788976855
2.5128974114974696
2.8649061171519667
2.6870188215538193
2.511791850542445
3.5645956502573473
3.2005873130687923
2.6510495911257186
3.866185429849649
2.631177734453118
3.4943048675225508
2.690146276527919
2.623031037591738
4.285508141718901
3.5459863003808807
2.7177282266515532
4.173024788749007
2.4972448360211157
3.089414265049137
2.575808923794505
2.528355116998271
4.258237212099504
3.998840002742299
2.444064447589751
3.4318438209079245
2.187087647002102
2.582697591292254
2.571117153059045
2.4823782386333617
3.7712629972325793
3.514045864724288
2.315733820833573
3.0342517898980237
1.9749681455452532
2.297876170319552
2.480006849159623
2.4784133807974458
3.351329739522047
3.239194717240932
2.0829449665336566
2.696585806930842
1.7603831169119877
2.0511159325348745
2.2699094224173493
2.3262056297549956
3.0238068148051607
2.942175127817894
1.863243327653874
2.2070588942459337
1.64185963324336
1.6949423842125328
2.0257515316213928
2.109855776763199
2.494526541068104
2.6658045872313636
1.707472740538266
1.8284748808181635
1.6128690973325246
1.6807884866432494
1.789033701041781
1.885928797714394
2.169488763478892
2.3234239136954318
1.6074208997035235
1.5619372880653493
1.5422868545863668
1.4288838536374677
1.5785714318028092
1.6655805899353253
1.8392456376303157
2.2991107188689446
1.4397309449053532
1.2205182712170686
1.3814709427910488
1.275661270051663
1.4199148284952017
1.4936212702755005
1.4819716986265725
1.967645630611938
1.287872404566256
1.0766131853137175
1.2456158541114304
1.1401663075982775
1.2625337184001046
1.3363161402147457
1.3230661043515526
1.7835676164990022
1.1634506575067918
0.9552571535275638
1.132155332463372
1.0294113749972968
1.1369792083314536
1.1938057187699411
1.1861437689165923
1.6175058420251411
1.0592097519103412
0.859053174747493
1.0406304739931065
0.9432178542963334
1.032928664778712
1.0794027961564048
1.080679634377424
1.4819244500162565
0.9816679500650476
0.7714663622845976
0.9616181832495614
0.994299620045991
0.9692360384663827
1.3626139901080494
0.933232885738439
1.284333090477469
1.258063176789931
1.2999111234331202
1.4731972684942085
1.3244991753915043
1.2866055585150677
1.1906219918156358
1.3489602975427046
1.2769378281846038
1.2619899888505843
1.2113729892701433
1.387098119489201
1.5534740711676323
1.3432397848428983
1.3611828134304478
1.381434120696257
1.414324988617826
1.3258449900230436
1.2802940308192563
1.3720957524151183
1.4774167014601824
1.3957337908086345
1.4649269377474115
1.4445267419885073
1.4808290210057158
1.3666798568762992
1.334985391944067
1.5166150901821078
1.4769260800371924
1.445301480308435
1.5287663123308255
1.490025948015102
1.537188501020284
1.4000927126323854
1.3702640403801225
1.5758324973366973
1.579583358446284
1.4705379879908858
1.573294357687042
1.5120687106899873
1.5676625273809615
1.4170107400025866
1.3912899323507528
1.6234788657755952
1.6344391941147087
1.4785763830099778
1.5937138292786497
1.5151278881188652
1.5746715176965629
1.4192941356339221
1.399259215325632
1.6433565018859189
1.6674897080767836
1.4715223915712647
1.5913118188156878
1.501181886165431
1.5614276838321568
1.4112064270569191
1.3955296762284637
1.6419989905374694
1.6750013620256134
1.4507454670554139
1.5703796840593625
1.4727494261299001
1.5321378454671228
1.3928184167159168
1.382938871311588
1.618773733191111
1.6605089046856865
1.4213428580206577
1.5339625156819754
1.4368026326160706
1.4900338709401653
1.3682373869154314
1.3617169046851765
1.5796654061325448
1.6262347850494407
1.386461987999204
1.4869382235948945
1.3975328835227465
1.444777880794342
1.3401306672165767
1.3373658407282165
1.529471208960577
1.5782697467564173
1.358610592286027
1.442620242325942
1.3683185188205815
1.4050831715889007
1.3186118137273075
1.3112027841813996
1.478648581000044
1.5233392048341265
1.3339387914016978
1.39885184071527
1.332507530561157
1.36065592710641
1.3024043549131945
1.2967853037733588
1.4290003659050994
1.4712600354528322
1.299164389600425
1.3473958240199448
1.2904942618783588
1.3105772997526253
1.275499680420674
1.2773083848929028
1.3724736293590838
1.4158822576353784
1.2617525039296063
1.2927453007530554
1.2494815276212554
1.2603912865704379
1.2445666765387893
1.2496437253077906
1.3129565664753289
1.3558663708140377
1.2275686880566998
1.2428456650352102
1.2160453210058488
1.2204125390351768
1.2173237792600866
1.222050791433825
1.2586508736996624
1.2964077609571636
1.2022796293395857
1.2076260916330113
1.1927502356988327
1.1937294799629303
1.2052511110245991
1.2087718938942489
1.2175598769909506
1.2461515330575685
1.1882690737211312
1.1828003240950171
1.1925038763397748
1.186055882449563
1.18713213772567
1.1945847813883848
1.1884101169793542
1.2092730582052067
15.36779269672089
1.185045474884892
15.548503526554146
1.3722042986083598
28.699536817400812
14.523111061024233
1.1740253610492686
1.1806455614982767
1.3471169618926306
0.6309514755538885
1.1522849450742914
1.1663521679543973
11.116707501378988
11.81760685763805
1.137018814994613
24.9355972577587
0.8072468209839159
0.7984176522894196
0.7974739990391864
0.8041678274990818
0.7976607916538483
0.794528146906001
0.8175787631725929
0.8138086928745972
0.8378029623914225
0.8070614578040521
0.8370242137209989
0.8138404561027583
0.8657237896963574
0.7023894881611472
0.7227284394699455
0.53539986841791
0.8556908632563107
0.8163090773326018
0.5652612167048676
0.7201201414835489
0.606769597027697
0.8193008976690195
0.7817389319361991
1.1815988036295573
0.789676514310097
0.8956024303122989
1.0029518184946156
0.5819225177872265
1.147988691920363
1.416343589252866
1.3284692864922534
1.1969643121313982
0.8434844408928941
0.6601415981911303
1.2492004792234854
1.1981066144257728
1.2194940799077765
1.12693984767728
1.1429097717572647
1.1818605138876235
1.4061459061335235
1.2106168616905313
1.1702621545529888
1.0731435089777261
1.2193286581882539
1.2542079290627672
1.274344607195697
1.2702731359398516
1.20650882969651
1.316741769491268
1.245264446186128
1.2162393378866927
1.301233779125056
1.2894801212536824
1.3224823888831232
1.3148002022675949
1.3205697660451372
1.2808607656240345
1.2796679670579174
1.2515174988674471
1.351374607460235
1.325043122680896
1.3666010864206535
1.347951788256843
1.3707795452242946
1.361223313567264
1.3041586725244358
1.2841035979153697
1.3899425548814248
1.3446830806368775
1.3936025257963494
1.3669923497156127
1.4165992700504282
1.4126627393537166
1.3175912299017247
1.2999754873652303
1.4138785692697866
1.3549087194888303
1.4106741949509631
1.3783145212507435
1.4445360562668246
1.450916727962391
1.321891894395301
1.306883673886931
1.431874814170179
1.365139261339243
1.4275958210698492
1.3932199419391327
1.4632419187963148
1.4726987865741368
1.3265304685115913
1.3066889033295626
1.4454575796961164
1.3757097354423922
1.4275605776839695
1.3921886125609617
1.4753497103179347
1.4888550563178033
1.3344501764662873
1.313351590135376
1.4322129557183731
1.3637702302973516
1.4030055339648042
1.3699347736667902
1.4642494034749003
1.4894891560623147
1.3278737209559501
1.3150325442434554
1.3959216361290752
1.337642078494739
1.3574448276377622
1.3322360303014402
1.424773392488473
1.463893738080729
1.3021854492399652
1.2985816350706147
1.3429375641499965
1.2984598772291969
1.3107998159350756
1.291530926350598
1.3724842986153074
1.415843318462471
1.2716742483503192
1.2699937721677883
1.3009299744165008
1.2686757343846535
1.276373896688165
1.2633885462407952
1.3263675733075542
1.3657841492914398
1.2503820883320929
1.2464516514191597
1.265902236732519
1.2481227999779283
1.2461323279052872
1.241338241598066
1.284695283203487
1.3206045420501862
1.2343371703217638
1.23130927053207
1.2332402780005447
1.2311255974515207
1.2192681171215627
1.2219475228797598
1.2461622210677379
1.2778473174434484
1.222541739959172
1.2189687544495529
1.2045562455100316
1.2153774750585824
1.1958577416845588
1.2039995654749127
1.2114174517719958
1.2390512664507203
1.217526044065976
1.2155122343948048
1.1805594166828286
1.205234007935983
1.1754474335427112
1.1919802010055116
1.1830850361028304
1.2052445673665253
1.2117231235683077
1.2126372501146314
1.1588798602119585
1.1945173957218482
1.1677870232310688
1.1868917912781582
1.1592492812781732
1.1783424740289279
1.374087758633736
1.378039679549724
1.1617139817849755
14.831818089670591
1.3298374315763872
14.980836771414914
1.1487575306978237
1.1551999932101316
14.28495396353941
0.819598028058864
1.3034050113872178
0.6137645101490352
1.1306139624764062
1.1440899315784239
10.787789684396678
11.46686834566316
1.1200521225047053
24.194022705408667
2.554245804718565
-0.5447507424978373
-4.67858935523806
4.11048717142087
1.037009295188608
0.7187592602238142
0.7442779312079539
10.473073034773083
-2.999813445621976
-12.845904436408164
1.6106631303600243
1.7076790022896629
1.0083174476669516
0.8254695819769784
1.0313029105306681
0.8229363738565549
0.9037236577382296
6.9767513336473055
0.7726246764293208
1.2650868608317123
0.9610192200917382
0.7652297316291732
0.8747862008841394
0.8873632490956875
0.9985892061616729
0.9642791066718805
0.6173330189941273
0.6221947556738514
0.8496303072005192
0.8780300470262317
0.8241174331680969
0.8399401247822613
0.937579810111128
1.0003056898646827
0.9139208107112169
0.7753573001456269
0.89866311730496
0.8325031265291913
0.8919160077152746
0.8099333253253416
0.7229678230059433
0.7363716417796891
0.8299032214613746
0.8732309833994297
-21.95445897469196
-2.366612644966112
-3.012123133895113
-18.410594771678237
1.1749051836560949
1.1674247378702847
1.165078363478767
-18.28420758119074
0.7281469001549887
1.1826414149374014
1.3813936203652961
1.1486311697093263
1.176921501035888
1.1493160250747332
1.1799527307928126
1.094701167144987
1.2398819257934468
1.191906514351333
1.1877996080755182
1.1316684488364743
1.1984508401243759
1.1369949361649305
1.1731406217347526
1.0469202447215231
1.010637818395443
1.2040966432139695
1.2005835471978512
0.9895248757983965
1.1889665793883628
1.0077776656604454
1.1710736836805897
1.2592250116213553
1.321946867872938
1.2201032772368212
1.2099231226728047
1.2352956895606293
1.1939409288438356
1.2572493582416748
1.0525985795047368
1.0348500290605298
1.0770321409833046
1.2163774610860496
1.2246469137712621
1.0412283188224607
1.0771158181619234
1.0121277555218948
1.2526660335982955
1.165818196840536
1.1813935757596505
1.221288371046473
1.2192076646315007
1.1314175486300304
1.3194039060659013
1.2027317770961043
1.1501798564555745
0.6792778385325691
0.6845779234425088
1.1502447597241912
1.2276794401411353
0.7726935354021769
1.189165481332684
0.7125455466834354
1.1815694132544725
0.8542201320237838
0.8321186636202499
1.356800570690976
1.1486557994721562
0.8895854011580279
0.9278646633580246
0.9174455372191811
0.9852169953590301
0.8528616611946611
0.8823538571345133
0.9329769852448921
1.023266654535874
0.8458035175860861
0.8075125463363965
0.8514328165298872
0.7836496493403455
0.7659424863611025
0.7885320779953886
0.969927404898127
1.082818374873088
1.225397722155149
1.161296288551363
1.3072629750086762
1.310944708594432
1.4495982838534398
0.9957723470031946
1.0781444227834382
0.8629126421341515
1.4240843561626373
1.4305979676252967
1.293293094250097
1.296124972127001
1.4438177439699231
1.551196924514253
1.6834190036519743
1.4806138788531849
1.3975010102805192
1.4346921297618418
1.4439596852009149
1.4783189268053336
1.3854213100296653
1.3009467818065292
1.4766553257276471
1.5909092041194837
1.4776801843283836
1.5584265548698646
1.5231327024112065
1.5695198313482686
1.4452879180537286
1.399487718675406
1.634616561960073
1.5964721298613473
1.5321842772363317
1.6381214889013438
1.580422148134295
1.639972230862245
1.48251016054148
1.4410663194417
1.706946728127075
1.714535077664208
1.5666356161452184
1.6929618973318885
1.6118686770623636
1.6786448755210834
1.5056870649425982
1.469799480236823
1.7649529881846862
1.780788560940774
1.5799654083877872
1.718251669386894
1.6184038060461656
1.6899138685865527
1.5147931196022109
1.4857478370741672
1.7904323058909535
1.8228166028779405
1.5761323650303578
1.7164081099703514
1.6115516563023262
1.6803173387019326
1.509535650389107
1.4866348026193386
1.7864731969686103
1.8321595920888711