# vtk DataFile Version 1.0
Tissue data
ASCII

DATASET POLYDATA
POINTS 1593 float
0.0715232 -0.553031 0.7755569999999999
0.0534758 0.456081 0.88178
0.186993 -0.659649 0.576115
0.172478 -0.645476 0.61056
0.157657 -0.630544 0.643156
0.141394 -0.615512 0.673426
0.125376 -0.600539 0.701138
0.107668 -0.585551 0.7266239999999999
0.0901486 -0.569729 0.751389
0.10283 -0.544644 0.781169
0.132148 -0.534727 0.7867649999999999
0.161117 -0.524673 0.790465
0.19072 -0.513735 0.79278
0.220897 -0.501798 0.793675
0.251551 -0.488792 0.793055
0.282563 -0.474685 0.790805
0.313797 -0.459473 0.786815
0.345101 -0.443176 0.78098
0.376309 -0.425836 0.773219
0.407247 -0.407512 0.763473
0.437733 -0.388282 0.751713
0.467584 -0.36824 0.737945
0.494948 -0.348665 0.7232
0.520885 -0.328926 0.707123
0.545818 -0.308748 0.689497
0.570091 -0.287819 0.670034
0.59449 -0.265408 0.647805
0.617302 -0.242836 0.624313
0.638547 -0.220307 0.599411
0.658009 -0.197822 0.574039
-0.202169 0.655884 0.564751
-0.18406 0.642295 0.601801
-0.165161 0.627564 0.637169
-0.144363 0.612247 0.670435
-0.123416 0.59658 0.7011
-0.100358 0.580616 0.7291569999999999
-0.0779519 0.563504 0.756031
-0.0544255 0.547003 0.78033
-0.0320347 0.529909 0.803025
-0.0100704 0.512533 0.824169
0.011104 0.494805 0.843942
0.0322496 0.476085 0.863062
0.0719944 -0.530889 0.802356
0.0720662 -0.508262 0.828308
0.0721261 -0.484881 0.853595
0.0721853 -0.459894 0.879
0.0722099 -0.433252 0.9043599999999999
0.072197 -0.404902 0.929483
0.0721547 -0.374787 0.954155
0.0720802 -0.342849 0.978136
0.071947 -0.309041 1.00115
0.0717043 -0.273338 1.02285
0.0712864 -0.235756 1.04288
0.0706216 -0.196358 1.0608
0.0696324 -0.155269 1.07617
0.0683519 -0.115118 1.08791
0.0666849 -0.0746575 1.09634
0.0646647 -0.033393 1.10133
0.0630645 0.00916744 1.10254
0.0636576 0.0538156 1.09916
0.0641647 0.0974074 1.09188
0.0642218 0.1395 1.08115
0.0638502 0.179822 1.06749
0.0629622 0.218138 1.05147
0.0617266 0.254378 1.03357
0.0605748 0.288452 1.01416
0.0593724 0.320496 0.993661
0.0581552 0.350587 0.9723809999999999
0.0569619 0.378802 0.950611
0.0558105 0.40522 0.928605
0.0546465 0.430842 0.905748
0.086005 0.446675 0.886929
0.117013 0.436857 0.891246
0.146773 0.426658 0.893752
0.177361 0.415685 0.894689
0.208602 0.403857 0.893838
0.240349 0.39116 0.891052
0.272448 0.377587 0.886192
0.304738 0.363153 0.879145
0.337048 0.347889 0.869825
0.369197 0.331838 0.858184
0.400997 0.315062 0.844212
0.432254 0.297631 0.82794
0.462778 0.279632 0.809439
0.490679 0.262187 0.790099
0.517061 0.244738 0.769438
0.542373 0.227042 0.747204
0.567 0.208839 0.723033
0.591729 0.189477 0.695901
0.614899 0.170127 0.667489
0.636458 0.1509 0.637954
0.656313 0.131923 0.607393
0.674405 0.112257 0.576894
0.0389772 -0.547395 0.7859309999999999
0.00693859 -0.540853 0.795239
-0.0250034 -0.533313 0.8037219999999999
-0.0578406 -0.524304 0.811844
-0.0914559 -0.51342 0.819724
-0.124905 -0.501614 0.826856
-0.157567 -0.488872 0.831952
-0.190616 -0.475041 0.835465
-0.223874 -0.460103 0.837148
-0.257245 -0.444115 0.836839
-0.290576 -0.427115 0.834425
-0.323687 -0.409158 0.829834
-0.356391 -0.390322 0.823028
-0.386658 -0.371829 0.814593
-0.415627 -0.353072 0.804446
-0.443761 -0.333793 0.792493
-0.471478 -0.313713 0.77852
-0.499695 -0.292132 0.76184
-0.526552 -0.270369 0.743463
-0.551948 -0.248557 0.723573
-0.575802 -0.226817 0.702371
-0.598067 -0.205265 0.680053
-0.618709 -0.184003 0.6568269999999999
-0.637759 -0.163138 0.632826
-0.65522 -0.142847 0.608067
-0.670978 -0.122582 0.583603
-0.0962692 -0.677227 0.578977
-0.0798992 -0.66113 0.612901
-0.0577422 -0.646918 0.641663
-0.0355008 -0.632468 0.667596
-0.0130665 -0.617845 0.69138
0.00863701 -0.602806 0.713621
0.0295456 -0.587331 0.734585
0.0502216 -0.570883 0.755148
0.237762 0.647222 0.559626
0.223704 0.632217 0.598499
0.208648 0.616262 0.635694
0.192868 0.599535 0.671003
0.176198 0.58237 0.7041499999999999
0.159242 0.564908 0.73502
0.141654 0.547319 0.763714
0.124777 0.529655 0.790268
0.106857 0.511865 0.814912
0.0898413 0.493838 0.838034
0.0723274 0.475099 0.860293
0.0215934 0.448719 0.891011
-0.00968371 0.440313 0.899471
-0.0408447 0.430641 0.907279
-0.0730864 0.419292 0.914526
-0.105337 0.40657 0.921101
-0.137491 0.391745 0.926963
-0.170225 0.376493 0.930375
-0.203329 0.360458 0.931517
-0.236668 0.343609 0.930296
-0.270077 0.32598 0.926596
-0.303381 0.307633 0.920338
-0.33639 0.288645 0.911482
-0.368909 0.269109 0.900044
-0.39891 0.250232 0.886974
-0.427518 0.231391 0.872082
-0.455195 0.212319 0.855248
-0.482359 0.192738 0.836226
-0.50991 0.171971 0.814191
-0.536022 0.151279 0.790523
-0.560612 0.130771 0.7654529999999999
-0.58362 0.110549 0.739212
-0.605013 0.0907106 0.712023
-0.62477 0.0713432 0.6841039999999999
-0.64287 0.0524925 0.6557
-0.65936 0.0341851 0.62696
-0.674291 0.0165189 0.597974
-0.68767 -0.000472006 0.569197
-0.679083 0.0776221 0.579651
-0.677108 0.0470423 0.5893269999999999
-0.660075 0.197098 0.570098
-0.662045 0.163847 0.584387
-0.66302 0.130708 0.597019
-0.662978 0.0978197 0.6079789999999999
-0.661618 0.0657448 0.61823
-0.635948 0.253867 0.579977
-0.640094 0.219399 0.596413
-0.642839 0.185132 0.611696
-0.644519 0.151181 0.624976
-0.645117 0.117694 0.636544
-0.644531 0.0848907 0.646753
-0.606835 0.31208 0.585338
-0.613308 0.277033 0.604352
-0.618231 0.241907 0.622231
-0.621873 0.207002 0.63805
-0.624271 0.172361 0.652104
-0.625552 0.138161 0.664332
-0.625701 0.104524 0.6749499999999999
-0.572777 0.370395 0.585525
-0.581636 0.335456 0.607282
-0.588838 0.300078 0.628011
-0.594669 0.264608 0.6466189999999999
-0.599108 0.229169 0.663414
-0.602309 0.193957 0.678257
-0.604323 0.1591 0.691238
-0.605207 0.124696 0.702452
-0.53445 0.42704 0.58024
-0.545383 0.393386 0.604477
-0.554823 0.358445 0.628149
-0.562852 0.323024 0.649795
-0.569427 0.287294 0.66962
-0.574685 0.251507 0.687416
-0.578665 0.215823 0.7032269999999999
-0.581441 0.180396 0.717072
-0.583069 0.145308 0.7290409999999999
-0.495164 0.47765 0.570264
-0.506838 0.447117 0.596305
-0.517132 0.415509 0.62166
-0.526971 0.380988 0.646576
-0.535512 0.345624 0.669727
-0.54277 0.309847 0.690794
-0.548736 0.273853 0.709798
-0.553456 0.237841 0.726712
-0.556965 0.201953 0.741588
-0.559322 0.166265 0.7544879999999999
-0.466134 0.49659 0.583798
-0.478057 0.466531 0.611223
-0.488941 0.435298 0.637301
-0.498604 0.402451 0.662746
-0.507338 0.367567 0.687387
-0.515011 0.331994 0.709884
-0.521537 0.296023 0.730208
-0.526878 0.259865 0.748389
-0.531034 0.223669 0.764474
-0.534044 0.187481 0.7785259999999999
-0.421095 0.544511 0.566392
-0.435843 0.515319 0.59538
-0.448322 0.485501 0.623985
-0.459712 0.454503 0.651192
-0.469693 0.422093 0.677764
-0.478601 0.388187 0.703217
-0.486553 0.353258 0.726834
-0.493469 0.317662 0.748412
-0.499275 0.281666 0.7678969999999999
-0.50391 0.245421 0.785342
-0.507388 0.208898 0.800819
-0.388307 0.562291 0.575831
-0.402686 0.533832 0.606822
-0.415954 0.504081 0.636505
-0.427965 0.473035 0.665122
-0.438846 0.440788 0.6924089999999999
-0.44859 0.407442 0.718232
-0.457216 0.373165 0.742397
-0.464726 0.338178 0.764723
-0.471066 0.302704 0.785137
-0.476111 0.266881 0.803737
-0.479724 0.23046 0.820842
-0.354672 0.579087 0.583831
-0.368896 0.551307 0.616124
-0.382318 0.52196 0.647223
-0.394798 0.49123 0.677006
-0.406293 0.459235 0.70535
-0.416798 0.426151 0.732045
-0.426276 0.392167 0.756948
-0.434703 0.357496 0.779923
-0.442026 0.322377 0.800886
-0.448078 0.28708 0.81989
-0.452272 0.250253 0.838373
-0.304257 0.620547 0.556667
-0.320464 0.594707 0.590162
-0.334765 0.567542 0.623548
-0.34824 0.538804 0.655756
-0.360913 0.508622 0.686645
-0.372752 0.477118 0.716051
-0.383731 0.444439 0.74381
-0.393827 0.410768 0.769747
-0.403014 0.376296 0.79372
-0.411283 0.341228 0.815594
-0.418625 0.305774 0.83527
-0.424082 0.269305 0.854039
-0.270691 0.633385 0.560643
-0.286107 0.608622 0.595519
-0.300528 0.582312 0.629345
-0.313957 0.554387 0.662345
-0.326662 0.524949 0.6941309999999999
-0.33865 0.494121 0.724499
-0.349903 0.462038 0.753274
-0.360391 0.42886 0.78029
-0.370095 0.394752 0.805389
-0.378999 0.359875 0.828443
-0.387121 0.324338 0.849351
-0.394518 0.288001 0.868149
-0.236666 0.645274 0.563188
-0.251976 0.621205 0.5989329999999999
-0.266254 0.595667 0.633554
-0.279627 0.568629 0.667132
-0.292266 0.540062 0.699611
-0.304269 0.510055 0.730778
-0.315649 0.478724 0.760452
-0.326373 0.446208 0.7884639999999999
-0.336416 0.412654 0.8146559999999999
-0.345759 0.378201 0.8388909999999999
-0.354377 0.342936 0.861086
-0.362231 0.306773 0.881281
-0.217993 0.632449 0.600923
-0.232241 0.607682 0.636092
-0.24541 0.581524 0.670206
-0.257905 0.553894 0.703211
-0.269818 0.524812 0.735005
-0.281214 0.494351 0.765425
-0.292054 0.462636 0.794307
-0.302312 0.429794 0.821489
-0.31196 0.395946 0.8468289999999999
-0.320954 0.361185 0.870229
-0.329199 0.325495 0.891697
-0.198542 0.61833 0.6372059999999999
-0.211471 0.593087 0.671656
-0.22374 0.566423 0.705047
-0.235466 0.538335 0.737302
-0.246796 0.508835 0.768306
-0.257656 0.478029 0.797909
-0.268025 0.446025 0.825948
-0.277883 0.412926 0.85228
-0.287156 0.378828 0.87679
-0.295741 0.343758 0.8994409999999999
-0.177835 0.603321 0.671674
-0.189901 0.577658 0.705248
-0.201345 0.550614 0.737795
-0.212562 0.522133 0.769222
-0.223366 0.492319 0.799388
-0.233757 0.461258 0.828135
-0.243747 0.429019 0.855326
-0.253223 0.395703 0.880834
-0.26207 0.361365 0.9045839999999999
-0.156432 0.587624 0.703964
-0.167519 0.561685 0.736601
-0.178654 0.534245 0.768297
-0.189346 0.505469 0.798885
-0.199666 0.475443 0.8281769999999999
-0.209746 0.444155 0.856078
-0.219361 0.411714 0.88246
-0.22839 0.378199 0.907211
-0.133879 0.571607 0.733811
-0.145183 0.545224 0.765617
-0.155763 0.517478 0.796534
-0.165859 0.488554 0.826236
-0.176037 0.458302 0.854676
-0.185768 0.426808 0.881792
-0.194895 0.394188 0.907435
-0.112094 0.555058 0.7615379999999999
-0.122885 0.528499 0.792435
-0.132402 0.500605 0.822436
-0.142698 0.471399 0.851322
-0.152623 0.440966 0.878973
-0.16179 0.409302 0.905385
-0.0889605 0.538696 0.786255
-0.0995062 0.512002 0.816421
[...]
CELL_DATA 3055
SCALARS gaussian_curvature float 1
LOOKUP_TABLE default
0.9922042115537759
1.001231436850493
0.8830577896647855
0.8713768986118011
1.0067743500840638
1.2734303450925446
0.8918835920659788
1.251585649964483
0.8610116716412001
1.0675486638854268
1.3119634313521233
1.2152281720339957
0.8949074062849456
0.9539939809819842
0.7930336144344874
1.0148396344693607
0.9939344643141925
0.9784692410263451
0.8692758659147695
0.9866889950845807
1.1103086712043218
1.2286807393061976
1.1444666611790968
1.2414074120270149
1.0049041591485448
0.9673334903859435
1.0752051773254532
1.0767750791674322
1.0872754603297985
0.9450903645631192
1.1078536622824744
1.1637944052598599
1.0979718583884226
0.9136225442415855
1.1172055931425278
1.2253002748515462
0.9690553271599055
1.0207488930713244
1.0928785904240634
1.1128004026602678
-1.639613963438173
-1.4438580006879578
17.99184811906475
1.2899812734938556
1.3955592914935995
1.28646896162486
1.1962910168743885
20.91285646363543
36.157377441781925
1.279357515033452
1.270770622672103
1.6132397588051193
0.836232922510818
1.2838642056612768
1.3578350329746927
1.2046198937450407
1.3687686658089282
1.286358871873727
1.2783398693769064
1.2402509786212152
1.2963874298324307
1.219331843772169
1.215817526669139
1.3592931105139072
1.19163002134699
1.3040721781793645
1.2918548943646866
1.2700536095177277
1.3054206943040394
1.399790093405752
1.230157147882394
1.2893935903120826
1.287423733955642
1.2570192404871054
1.3012625920024563
0.8501054495298742
0.8658144058430588
1.3092827670197984
0.9167389323400748
1.405883190441451
1.2432231608150885
0.9522372765019123
0.9428703797649596
1.3867191596457145
0.8739022896518283
1.2475714008633414
1.218400857519972
1.1759883580557264
1.3653002105267626
1.219402298793974
1.2941678578961722
1.2247685791643028
1.3052380659345841
1.2782512866669604
1.299826130395552
1.2018279107850531
1.270776499339898
1.3308258236870534
1.288712493382644
1.3330231303528666
1.317896579316081
1.3302692998666152
1.3103398146135259
1.2948602124788928
1.2614583373839596
1.345613291797141
1.3301768729663386
1.355244599325114
1.3549347315310973
1.3343618238256059
1.3212151385608932
1.3353731174386871
1.3292405428846783
1.3538935050627874
1.364435583456657
1.366993273763146
1.3778452199510323
1.3340695235708964
1.3241691498616877
1.3747181887145536
1.3704135812613425
1.3539848735861608
1.3863064065178459
1.36881630765808
1.3902858944018788
1.327938716624885
1.3211231353099788
1.402863717116548
1.4046851358076309
1.3495879447253474
1.3982970067887153
1.3645858354849443
1.3918253108045133
1.3181012945742596
1.3112835005457164
1.4200935293648143
1.4286397275766798
1.3393264173291413
1.3989722390066952
1.3535348379111085
1.3859411842690934
1.3059153211482109
1.2996880891529263
1.4248263057213473
1.4394759000952642
1.3255184321908748
1.3931344934840904
1.3390418325642222
1.374251547499453
1.2916416744162469
1.2862469839555506
1.4221729309132296
1.4408336884128845
1.3105266349471687
1.3805910275607878
1.3227789389906068
1.3576336166689953
1.278209780747076
1.2728482205895018
1.4101549938392708
1.432853951207075
1.2950623691877379
1.362879593925899
1.3094556905131414
1.3424182375729146
1.2659177096108523
1.2613174252136286
1.392317207293268
1.4166351963148467
1.2907177798711766
1.3504305997297152
1.3083404485015302
1.3350907213002958
1.2609746094716656
1.250567860536745
1.3734011925174463
1.3948264437280142
1.2931348827336262
1.3400211460396179
1.3025824109669608
1.322718401474187
1.2665404412108563
1.2520028365792493
1.3597048807062604
1.3777450487546694
1.2846703717326546
1.320055130949842
1.2851148768255136
1.300363645535475
1.2719067446001504
1.263224342311687
1.3364523924276837
1.3587993976186712
1.2751089770791966
1.2896659596536608
1.2681546083918833
1.2674628222563864
1.2621642091983074
1.2594064818121207
1.3016055229797676
1.3287004703394234
1.2556639206636353
1.2513634995027556
1.2470552908845458
1.243446655859163
1.450291893423639
1.4498378132709981
1.260196907072908
1.2882357931526456
1.4267705209800434
1.2296963783644088
1.4202357536271457
1.226770246036894
0.7039910766760311
0.7189038193405375
1.227142925518706
1.2497266105836127
0.7523222859149906
1.2124595106417968
0.7299544603448989
1.3835571926619563
1.2082605333031624
1.220017815852557
1.3623322303052574
0.6678840235422163
1.1833166268067743
1.2003426118248393
10.704902989688364
11.390214474932153
1.1741799052875237
23.459198973571954
-3.5322988836268845
-16.277432047427485
13.313913469631752
1.2552978222563236
-11.519285159784939
1.2425929504059603
1.2131431321652986
18.087273492966474
29.26495912755606
1.2512340451308233
1.2369973625823405
-15.747133009414876
1.2407816183450262
1.4051340575672042
1.1732462338216398
1.3670484912844794
1.2569726736869828
1.2547202286224168
1.3364791759321617
-3.0833595990996807
1.1889498663810179
1.2818794725850333
1.3307822499284945
1.2299095986696702
1.2599014974852536
1.2603889202678322
1.301376183496119
1.3178903205605228
1.3494272554787459
1.2320776579390458
1.271934897156871
1.255457950875995
1.20910907366262
1.2614156992166046
0.866491570669201
0.8838202223109112
1.2709220110081083
0.9057008604473826
1.1238118049874126
0.7750676007075624
1.328251647386216
1.1889463517188525
0.9164601562849335
0.9006311594437011
1.0853965377815453
0.7715499487014578
0.8732212904464078
0.9081189056461705
1.4035735047455713
1.499318408329546
0.8461509597533567
0.8604279075970123
0.8840091679740187
0.9968057310131485
0.9127323415324713
0.9906312893718383
0.9456985120361554
1.2530876014725703
0.9618362637572826
0.9477504494422033
0.9283185409952028
0.9655770210469459
1.0256280214394775
0.9849875536518536
0.8326634090663585
0.8787665536657635
0.9419697232096612
0.9320545242786877
1.0425770027030101
0.9744708965525422
1.0360911170505271
1.008625478687683
1.0989635840752745
0.9863594708828975
0.9963864210300121
0.983295780292039
1.0616118191159085
1.0446465619154306
1.075768340308412
1.1066342196152945
0.9223777832095947
0.9082722244593171
1.108605013458546
0.9667285183979246
0.9168034754848278
0.8353706522562734
0.9770091090179229
1.0006571836208864
0.975914380599793
0.9642969798096988
1.2499752722354387
0.8873970869490148
1.0314369226131053
1.0471375289401406
1.0020649095227738
1.3978447508246254
1.0240051062290865
1.3119555945131522
0.9555154877322812
1.0994261403522567
1.1122707315323197
1.05850326138269
1.4607190247055222
1.328069831394662
1.104359602644037
1.3917997997017975
1.0465149706179462
1.1900445150557308
1.191349268834795
1.1307707792262724
1.5403582042020132
1.3967479750448426
1.205833881499501
1.4903020353438872
1.1597916242625577
1.300730233669159
1.2909031987473911
1.2185739540565939
1.6373734702037597
1.4856743544158193
1.331387001799062
1.6106265563229836
1.3007001001806102
1.43900104529793
1.4146429320711584
1.328116871782544
1.7554080656786915
1.5925831778847397
1.4864785620172234
1.7562970259787671
1.4794307505717188
1.6109482694159427
1.5690998531297793
1.4665773215652624
1.8979668154618374
1.7254523441367084
1.6878472312892445
1.937869067612504
1.6953843461867737
1.8138886636658091
1.7662197195360156
1.6404245299310463
2.0657233098775745
1.8804723011640831
1.9152114805899578
2.1427470646326197
1.9464461666796442
2.0554774332432704
1.9977500676224413
1.8562954214660286
2.2702707748659665
2.0692666161642266
2.190313126879285
2.389177633026347
2.245221247958373
2.335054487541808
2.2734908065719157
2.112162433404759
2.487768014261269
2.2815915247115393
2.4928417130719405
2.645166267945445
2.5767010090091165
2.6391923242991853
2.5704401105459724
2.405997325125035
2.7315750098106473
2.5200536106419325
2.833215763724164
2.9425143809691416
2.9767450922427483
3.023552394197657
2.9044806038862747
2.725564246645259
3.002210541542146
2.7852972267373923
3.241725306412087
3.3178478916674674
3.4029635669799427
3.4322788502804142
3.2776288910449454
3.0839135170377174
3.325330932717569
3.0907315958207637
3.5868969658486973
3.6341185175484925
3.6931832428628573
3.7110895112621813
3.5917356316544238
3.443705817418527
3.592615799652051
3.3982591734340746
3.7181788257124087
3.9945347492639702
3.8596230620352734
4.118072717187511
3.6778523310187303
3.6576954139749054
4.00682478899018
3.681876833091949
3.7693194190873154
4.15955823429605
3.7305802138318214
3.862369373888318
3.5727839948278968
3.622761143082176
3.949283712170766
3.9200882347884374
3.4986877654954043
3.6719372877002456
3.3943788804371824
3.4358392425855273
3.507842560184047
3.5431995842610458
3.6392292033208475
3.619386767383636
3.28950768975153
3.3673093184543315
3.083244916257334
3.11958618281179
3.314104629365016
3.4281306147393114
3.364226169365217
3.4000480091170147
2.972764909286165
3.0644461685809263
2.736363337401126
2.7917033301414307
3.03589933565883
3.1709762822434855
3.105880221604572
3.157937086746321
2.649647805744771
2.714509034333872
2.4381167540373485
2.4476379898861444
2.7223242007081776
2.872174158737198
2.7865681494362806
2.9051964982674843
2.361820117464825
2.3684177855968467
2.2169615518944115
2.2140379841776374
2.421016713868412
2.5699897454043423
2.4831097643873377
2.6343890837790442
2.1322406335260915
2.0730077506853504
1.9981335161564524
1.9418242010324858
2.1314452298255953
2.275362744597502
2.180477520168099
2.436199732450877
1.8806137206354592
1.7651096499989323
1.7759907529982617
1.7167959974857019
1.8945728548601584
2.0112972466806553
1.905031237190519
2.189215557706821
1.6788677929690339
1.5612763455362617
1.585669286228477
1.5272725943082648
1.6802124189222962
1.7912945131762235
1.7002590001005733
1.9957002392416003
1.4955912997750043
1.3793037132713697
1.4217492164690664
1.3638583218856437
1.4940521759504568
1.5854747883571914
1.5247622854307536
1.8117138210319605
1.3436114999196183
1.2280337125344072
1.2839449427870204
1.2262580499852316
1.3401992934243507
1.4167978861492512
1.3782854036020238
1.6595685851126443
1.2117541000204308
1.088244660347205
1.210569080409565
1.279347716680887
1.2372041698843899
1.5254692505900334
1.1675561260267873
1.4190465965050163
1.396228090720852
1.4251363822583363
1.556049569751519
1.418475862388608
1.3546743953490412
1.3513805948008795
1.495781815671015
1.4261175391440828
1.4396055725210355
1.3448803793540876
1.4408839384793004
1.6470439231301557
1.457937715534732
1.5188319045993826
1.5033022570796346
1.5507084127673325
1.420680327481805
1.3823599356443639
1.548813293711171
1.6208490690919646
1.494081599232009
1.593368446640254
1.5451390633527966
1.597019755073344
1.4464628010610887
1.4184260708557876
1.648719542091813
1.6360408973306801
1.524317876527383
1.6372694348722976
1.5705191962114606
1.6315900628358282
1.4667439470761772
1.4399463357306705
1.689664240267319
1.7047656559199245
1.5355100142054696
1.6632834448723965
1.5780599968828364
1.644762560925396
1.4734316619424273
1.4508669144972122
1.7188964853861521
1.7395979087446043
1.5342309656918771
1.6686491375363448
1.5717547794754787
1.6394703872773868
1.4686137110646174
1.4503643899925338
1.7242044709055016
1.755930934808308
1.5201599678035915
1.6552204917987585
1.5498744989953193
1.6172194151885781
1.4547226320723068
1.4407001891169342
1.7100104816890518
1.7498157105368368
1.495574693010116
1.6266022578451715
1.5196310467691376
1.5833136954109341
1.434424688861889
1.4232871591158078
1.6796168623451821
1.725024009578882
1.465438825832913
1.5870957865065916
1.4813294524712652
1.5393037645031469
1.409511374684814
1.4025535914728116
1.6367149644507641
1.6859474778551171
1.429788766453338
1.53707902785106
1.4433373652704582
1.4926533146362986
1.381381777730819
1.3769950126006476
1.5829912037362983
1.6348351183325578
1.40358134744605
1.4927756726131292
1.414889145029125
1.4547675208303639
1.361171710605083
1.3525207397069727
1.5311245650874095
1.576914382995817
1.3807609278659598
1.4496379688808985
1.3804194114500679
1.4094180766637676
1.3477219841439165
1.3394405644661147
1.4817860079985135
1.5252644524222587
1.346356607416428
1.3972748294350497
1.33696116929532
1.3588807261002418
1.3215697257987813
1.3225935861103777
1.4245829011512388
1.4688741874975715
1.3069196450949336
1.34006680103177
1.2932956209188788
1.304523220050793
1.2883379187529385
1.2935925613356782
1.3621201129363687
1.4082421097210298
1.2691596527227351
1.2853195431659445
1.2561391088536158
1.261071400164911
1.2572405577384378
1.2627947995925866
1.3022170252912697
1.343474014080717
1.241313266835265
1.246982447862321
1.230169394565926
1.2309062842816867
1.2452647541566892
1.2481715011907428
1.2574369932519884
1.2884234276799036
1.2234067375035749
1.2185042796637378
1.2272732836415985
1.2216339360860005
1.2224920535119415
1.2332061978957167
1.2253534616917907
1.2482100116994068
14.338385221491063
1.2201746121188244
14.512551971081086
1.3999807092644465
26.56007253916573
13.448045917324631
1.207973923045272
1.216282429040501
1.371544009005287
0.6342263392694218
1.182603571615263
1.1988395828008698
10.108543204245693
10.828585163609983
1.1653278612436875
22.95089132474167
0.9616792915199768
0.9567189702606301
0.9579491044686614
0.956465576499844
0.9451048866214322
0.9609110825232656
0.9811019054690309
0.9853345506979103
1.0042952394356446
0.9815142187643158
0.9925836111743374
0.9642170951538351
1.035218737692404
0.8927702013741107
0.9212250618028246
0.7598158367467972
1.0362698690631345
1.0069888183096911
0.7673192873174597
0.8903260310843002
0.8408866113694748
0.9759287053187261
0.9815556296824981
1.2780069486877768
1.0062430775048095
1.0876326593088899
1.1564812012151777
0.8149174185865979
1.280871593027625
1.4685730586381633
1.4214818499476345
1.312731996552894
1.0639499936375403
0.9299904964277479
1.3379931005100931
1.327979486456158
1.3437419243342588
1.2518237790810978
1.284194736864559
1.3010264450061386
1.4827246388550694
1.3435429650783604
1.2741648481224643
1.2044931074661902
1.3458304447626914
1.347010445699964
1.383124080479919
1.3674723732756122
1.3528564378994699
1.4302034445221483
1.3290407436245397
1.3053978119720808
1.4106312717789247
1.3735836110350312
1.4204752421177764
1.3990792885781898
1.4398934545471853
1.419412256384958
1.352461281103914
1.3283803412690707
1.4476653327862754
1.3965474561029407
1.4508458450234205
1.4211239218796727
1.4787853515837757
1.4808574436835373
1.36674035743315
1.3481498599772817
1.474528625737077
1.408339716905261
1.468566771850717
1.4320997861626488
1.5093138913907946
1.5167511294746387
1.3726629079931447
1.3556400142977658
1.4876517704562962
1.411885237851709
1.4761597792477006
1.4368602323311817
1.5257978336379192
1.5414981006860575
1.372897118998439
1.3574348583972626
1.497131120628953
1.4183377409004891
1.4870694939582842
1.4475756611463393
1.5342406357668106
1.5514153575671812
1.375170654040884
1.3547050266183063
1.5061109824468966
1.427631316113552
1.4850147409449128
1.4460289074235135
1.5405772873955885
1.558645314044834
1.3835306468536062
1.3603079050267881
1.4899940821571027
1.4162306497345878
1.4568624647799697
1.4220848658788543
1.5247900766941132
1.5542770404306152
1.3777378088739203
1.3634353973029
1.4490871083155923
1.3875227421446965
1.4083315995710404
1.3815448323012602
1.4814372968139575
1.5240086478153456
1.350426254562398
1.3464955374358882
1.3937553939675125
1.3463223157118844
1.3598323322960937
1.339186021310246
1.4244091922069062
1.4713355863087996
1.317795686682119
1.3159217156891962
1.3485489004742357
1.3159009122666732
1.3222583977185787
1.3102567204968643
1.3748521471848023
1.4167893772460545
1.2957602118046476
1.290518691818455
1.3105177403965518
1.2940718418347854
1.290620801492278
1.2861765801522262
1.3298072053076702
1.3678511093402639
1.2803314412741726
1.2763756194742257
1.2761213621323793
1.2753303925477812
1.2610150539931455
1.264668305748599
1.289035012804417
1.322823917075434
1.2661051960448744
1.2632109830887066
1.2441281369553847
1.2567764632627783
1.2352282889112973
1.2442233634632371
1.2516552747795802
1.2814558424893785
1.2600234959947028
1.2586901419776169
1.2175001772775214
1.2456226278668485
1.2111449586180179
1.2302723346554052
1.2190621292079904
1.2443173786659616
1.2527956733622614
1.2546434416905743
1.1913242834574196
1.2318084213227727
1.2004880041409471
1.2218447659689131
1.1919953602838556
1.213377987374923
1.4079356157665432
1.4135725745945882
1.193602281584069
13.66863218236345
1.3549671917625399
13.808640330713954
1.178731896796688
1.186288696180002
13.10664479151718
0.8359845695664149
1.3243480244171366
0.6208875767357445
1.1580512173215967
1.173799999879619
9.896547418978093
10.5869634413852
1.1450067920473108
22.341665179468823
2.802757947504603
-0.8400195412857068
-7.518568916200822
4.773161566741053
1.115968672117912
0.8732645114524515
0.8588491056196197
12.97081880011566
-5.4566665063715645
-19.896150139219106
1.563881350637343
1.6697955470629824
1.0784063021501016
0.907070529717807
1.0870938892252995
0.9301735226258367
1.0089128622263885
9.001428304903346
0.9271471723189801
1.326838426740224
1.0286896647640233
0.8975313652601244
0.9768426287750661
1.00260469587063
1.0515563738667386
1.040467158404302
0.7668087585066105
0.8195275584734959
0.9550166186655072
0.9956989040571481
0.9433691097143279
0.9582893280104048
1.011532458662631
1.0562251778749054
1.0334805254569859
0.9096637105169538
0.9908298689817738
0.9595395550776437
0.9922935019705281
0.946082969770321
0.8630717599261213
0.8721268406557992
0.9663129905827461
1.002844384915345
19.878792681896464
-2.5585550783954614
-3.233719773834946
23.662696845572462
1.2206957245925119
1.2240699185933903
1.219416557905365
23.837398144246503
0.7665767041883993
1.2292987220807874
1.4503443971161594
1.2160880308610769
1.2319213260158424
1.2196310169934081
1.240117672836199
1.1855212520463567
1.3682044384527132
1.2423633856051144
1.2384616149829126
1.208234308537354
1.258632990942167
1.217068718872436
1.2469807454344584
1.1461110487365431
1.1269409783778774
1.2607858989128344
1.2527126403961384
1.124351187232168
1.2614646748887153
1.1440542986595126
1.251255759754038
1.2952460203127911
1.3258402921522485
1.2820063242336577
1.269675302750068
1.2799257561917008
1.2724011616172928
1.3043219146252385
1.1895958589563054
1.1683539269486065
1.2033773024970416
1.2901240978251725
1.2895203453068598
1.1819604144699951
1.213172880146231
1.173788318952443
1.319726840297612
1.209517522747672
1.220307193659821
1.3035344597791638
1.297680374797118
1.205774281241189
1.3681120820164638
1.262847427772839
1.279246707202945
0.8820504106324728
0.8776215566214036
1.2720169444519756
1.3139932823660565
0.9609585041699529
1.3136100946397564
0.9435414845879603
1.2797937956276577
0.9700399792296395
0.9482050322238093
1.410898770451832
1.2804402454505324
1.142689473113592
1.181718773445629
1.172973484049189
1.2480313031300987
1.1478107429728581
1.1838392617217306
1.1697549037010257
1.302647291982579
1.1310195716571756
1.1678162281854836
1.1737726512882691
1.1745407890677046
1.0399387585105262
1.0535113494780453
1.3118860673867292
1.3825250897754562
1.413343337997925
1.4430618307118888
1.5145255794731713
1.5434759344076994
1.532049349278449
1.2013978494221438
1.414688886053995
1.2902376836110565
1.5658995303345424
1.6289174608855048
1.5158392474804994
1.5499068230969337
1.543859901768555
1.611191962187708
1.8068579210701459
1.6930434499344469
1.5619017075520318
1.6535420227089768
1.6149763436036357
1.6725490831441463
1.519213347697221
1.451111259059701
1.713419947063239
1.787725207635837
1.615379661332115
1.7379448855869608
1.6675052283727791
1.7324977130871142
1.558987264653383
1.5158955870700932
1.8176362811327738
1.8121184030442214
1.649950871033318
1.7889829044525931
1.698833549488422
1.7728730981933618
1.5818010947887742
1.542963055449504
1.864565166459387
1.8877713706397214
1.664040195844414
1.8171984353571096
1.7087995698150913
1.787918260622847
1.5915911723421416
1.5582347497416058
1.8956508542506074
1.9269077790936537
1.663987537043594
1.822009654758894
1.7002756121889027
1.7791790390964473
1.5892190682725553
1.5615820775417804
1.8984409642419133
1.9428019889993644
1.6479167642876118
1.8024275121903648
1.6821072060554239
1.7577145270506327
1.5773571059096292
1.554947485039882
1.8787023596299866
1.9318851960190884